! TOUCHSTONE file generated by CST MICROWAVE STUDIO
! Date and time: Tue Jan  7 13:02:54 2025
! Project name: 2port_RIS_0.01V_22x45_TimeSolver_SmallHorn_D_1000_alfa_0_Angle_0.cst
! Parameters = {AA=1.03591; AB_sqInv=0.931309; Angle=0; BB=0.025494; C0=2.097; Cj=2.0886; Cp=0.075; Ct=2.12774; D=1000; ImZ=-7.48; L=290; L0=30; Lp=0.45; M=1.199; R=5.41; ReZ=5.03838; Rt=5.03838; V=0.01; Vj=2.984; W=180; a=10; alfa=0; b=10; f=0.01; height=0.8; horn_x=90; horn_y=145; horn_z=310; th=0.035}
! Header version: 2018
! Port assignment regex: !\s*Touchstone port\s*([0-9]+)\s*=\s*(CST MWS port|CST DS port)\s*([0-9]+|Zmin|Zmax)\s*\(\"(.*)\"\)(\s*mode\s*([0-9]+))?.*
! Touchstone port assignment:
! Touchstone port 1 = CST MWS port 1 ("")
! S-Parameters are not renormalized. Unphysical impedance of 0 will be written to the file.
# GHz S RI R 0
5                   -0.004683554    -0.005922779
5.012               -0.007118551    -0.001841342
5.024               -0.006659691     0.002883462
5.036               -0.003494232     0.006417256
5.048                0.001144585     0.007395624
5.06                 0.005459673     0.005449305
5.072                0.007787784      0.00134214
5.084                0.007242024    -0.003329601
5.096                0.004051349    -0.006758217
5.108              -0.0005327417    -0.007624527
5.12                -0.004724346    -0.005606003
5.132               -0.006895822    -0.001497636
5.144               -0.006206635     0.003099607
5.156               -0.002925642     0.006400689
5.168                0.001676523     0.007127386
5.18                 0.005821906     0.005001024
5.192                 0.00791426    0.0008473739
5.204                0.007155873    -0.003725649
5.216                0.003854106     -0.00695173
5.228              -0.0006999382    -0.007589606
5.24                 -0.00473272    -0.005402051
5.252                -0.00667501     -0.00124582
5.264               -0.005768467     0.003261435
5.276               -0.002357794     0.006367824
5.288                0.002243855     0.006864923
5.3                  0.006263677     0.004554652
5.312                0.008155255     0.000325161
5.324                0.007196624    -0.004193228
5.336                0.003769374    -0.007258859
5.348              -0.0007889375    -0.007692515
5.36                -0.004701979    -0.005333787
5.372               -0.006441658    -0.001103693
5.384               -0.005319552     0.003350821
5.396               -0.001754165      0.00629339
5.408                0.002889588     0.006570037
5.42                 0.006827151     0.004056696
5.432                0.008544296   -0.0002908518
5.444                 0.00738392    -0.004804661
5.456                0.003802611    -0.007748654
5.468              -0.0008029996    -0.007990727
5.48                -0.004634149    -0.005443142
5.492               -0.006185259    -0.001100203
5.504               -0.004828325     0.003342721
5.516               -0.001059942     0.006143088
5.528                0.003685971     0.006186236
5.54                 0.007589304     0.003420534
5.552                0.009147335    -0.001116874
5.564                0.007759326    -0.005695925
5.576                 0.00396527    -0.008560346
5.588              -0.0007558294     -0.00860888
5.6                 -0.004552962    -0.005827474
5.612               -0.005918598    -0.001303291
5.624               -0.004276723     0.003188042
5.636              -0.0002147435     0.005865652
5.648                0.004733674     0.005634884
5.66                 0.008674885     0.002519257
5.672                 0.01008717    -0.002336907
5.684                0.008416283    -0.007100698
5.696                0.004302388    -0.009954945
5.708              -0.0006537895    -0.009805005
5.72                -0.004500547    -0.006714058
5.732               -0.005689275    -0.001894865
5.744               -0.003682575      0.00274485
5.756               0.0008211716     0.005333529
5.768                0.006139582     0.004764161
5.78                  0.01024418       0.0011376
5.792                 0.01154351     -0.00425563
5.804                0.009510406    -0.009415801
5.816                0.004907617     -0.01239876
5.828              -0.0004831002     -0.01207386
5.84                -0.004533015    -0.008581341
5.852               -0.005587152    -0.003305731
5.864               -0.003119009     0.001634245
5.876                0.002038103     0.004192331
5.888                0.007982126       0.0031921
5.9                   0.01245522    -0.001194006
5.912                 0.01371275    -0.007477152
5.924                 0.01121572     -0.01339633
5.936                0.005874085     -0.01677702
5.948              -0.0002654378     -0.01638033
5.96                -0.004781507     -0.01241378
5.972               -0.005808672    -0.006496326
5.984               -0.002780871     -0.00107488
5.996                0.003305155     0.001498861
6.008                  0.0102239   -0.0001149201
6.02                  0.01534307    -0.005688769
6.032                 0.01663243     -0.01346102
6.044                 0.01347584     -0.02076542
6.056                0.006965453      -0.0250357
6.068              -0.0004556074     -0.02481116
6.08                -0.005889545     -0.02035436
6.092               -0.007094891     -0.01362627
6.104                 -0.0033917    -0.007601161
6.116                0.003998168    -0.005156877
6.128                  0.0123332     -0.00795019
6.14                   0.0183438     -0.01571149
6.152                 0.01948019     -0.02625282
6.164                 0.01494714     -0.03622365
6.176                0.006113416      -0.0423631
6.188               -0.003898825      -0.0427929
6.2                  -0.01133561       -0.037853
6.212                -0.01325509     -0.03012773
6.224               -0.008757325     -0.02359799
6.236               0.0004910018     -0.02218576
6.248                 0.01069184     -0.02820849
6.26                  0.01721855     -0.04133364
6.272                 0.01635545     -0.05847963
6.284                 0.00684145     -0.07478654
6.296               -0.009396438     -0.08538592
6.308                -0.02768612     -0.08737299
6.32                 -0.04219259     -0.08125052
6.332                -0.04817652     -0.07123487
6.344                -0.04417016     -0.06416662
6.356                -0.03326026     -0.06724393
6.368                -0.02289636     -0.08523858
6.38                 -0.02309533      -0.1181056
6.392                -0.04344835      -0.1598591
6.404                -0.08977854      -0.1992502
6.416                 -0.1614961      -0.2222425
6.428                 -0.2505653      -0.2156991
6.44                  -0.3425635      -0.1712656
6.452                    -0.4197     -0.08829743
6.464                 -0.4650527      0.02510392
6.476                 -0.4668795       0.1533626
6.488                  -0.421784       0.2767617
6.5                   -0.3358127       0.3759804
6.512                 -0.2231358       0.4366081
6.524                 -0.1026528       0.4524035
6.536                0.006541378       0.4264185
6.548                 0.08958017       0.3697228
6.56                   0.1389457       0.2981507
6.572                  0.1554904       0.2280393
6.584                  0.1471947       0.1721802
6.596                   0.126151       0.1370891
6.608                  0.1047451        0.122262
6.62                  0.09218479       0.1214684
6.632                 0.09234855       0.1255351
6.644                  0.1034685       0.1256641
6.656                  0.1195734       0.1162429
6.668                  0.1330888      0.09633248
6.68                   0.1376786      0.06948898
6.692                  0.1304061      0.04212067
6.704                  0.1125743      0.02102915
6.716                 0.08907251      0.01099912
6.728                 0.06655077      0.01322621
6.74                  0.05110188      0.02504928
6.752                 0.04625214      0.04099797
6.764                 0.05191328      0.05473372
6.776                  0.0645957      0.06119017
6.788                 0.07875039      0.05818884
6.8                   0.08873923      0.04701525
6.812                 0.09074849      0.03180895
6.824                  0.0840092      0.01802174
6.836                 0.07094532      0.01049619
6.848                 0.05624214      0.01182064
6.86                  0.04518573      0.02149914
6.872                 0.04185306      0.03618434
6.884                 0.04776093      0.05085959
6.896                 0.06140833      0.06054641
6.908                 0.07883652      0.06195363
6.92                  0.09499109      0.05452327
6.932                  0.1054116      0.04054406
6.944                  0.1076816      0.02432152
6.956                  0.1021678      0.01070395
6.968                 0.09182399     0.003466361
6.98                  0.08114773     0.004087243
6.992                 0.07465502      0.01130887
7.004                 0.07538264       0.0216059
7.016                 0.08390763      0.03038707
7.028                 0.09819105      0.03352104
7.04                   0.1142782      0.02868243
7.052                  0.1276093      0.01608491
7.064                  0.1345011    -0.001622846
7.076                  0.1333197     -0.02024706
7.088                  0.1249691     -0.03542124
7.1                     0.112555     -0.04400953
7.112                  0.1003464     -0.04508957
7.124                 0.09238179     -0.04020792
7.136                 0.09117345     -0.03283991
7.148                 0.09692048     -0.02724103
7.16                   0.1074735     -0.02706662
7.172                  0.1190492     -0.03420314
7.184                  0.1274549     -0.04817875
7.196                  0.1294283     -0.06633086
7.208                  0.1236647     -0.08466633
7.22                   0.1112133     -0.09913262
7.232                 0.09512563      -0.1068934
7.244                 0.07947652      -0.1072065
7.256                 0.06807277       -0.101634
7.268                 0.06325941     -0.09352507
7.28                  0.06519601     -0.08694229
7.292                  0.0718254      -0.0853731
7.304                 0.07953812      -0.0906315
7.316                 0.08431929      -0.1022916
7.328                 0.08301596      -0.1178262
7.34                  0.07432879      -0.1334023
7.352                 0.05922065      -0.1450821
7.364                 0.04061691      -0.1500532
7.376                 0.02249399       -0.147505
7.388                0.008641579      -0.1388784
7.4                   0.00148399      -0.1274145
7.412                 0.00132819      -0.1171409
7.424                0.006271382      -0.1116135
7.436                 0.01279804      -0.1128035
7.448                 0.01688107      -0.1204774
7.46                  0.01524548      -0.1322634
7.472                0.006401749      -0.1443857
7.484               -0.008874326      -0.1528405
7.496                -0.02776713      -0.1546494
7.508                -0.04628521       -0.148799
7.52                  -0.0604984      -0.1365725
7.532                -0.06776368      -0.1211653
7.544                -0.06755713      -0.1066999
7.556                -0.06164847     -0.09694327
7.568                 -0.0535589     -0.09412669
7.58                 -0.04746543     -0.09823694
7.592                -0.04689084      -0.1070063
7.604                -0.05358764      -0.1166105
7.616                -0.06696894      -0.1228616
7.628                -0.08426959      -0.1225266
7.64                  -0.1013945      -0.1143577
7.652                 -0.1141941     -0.09950709
7.664                 -0.1197685     -0.08118989
7.676                 -0.1173906     -0.06369352
7.688                 -0.1087531     -0.05103955
7.7                  -0.09745301     -0.04571763
7.712                 -0.0878719     -0.04789106
7.724                -0.08379709     -0.05533106
7.736                -0.08721984     -0.06410641
7.748                -0.09769142     -0.06981792
7.76                  -0.1124465     -0.06899079
7.772                 -0.1272616     -0.06018549
7.784                 -0.1377822     -0.04447228
7.796                 -0.1409014      -0.0251135
7.808                 -0.1357525    -0.006548338
7.82                  -0.1239982     0.007001928
7.832                 -0.1093189      0.01286873
7.844                -0.09625798      0.01078517
7.856                -0.08878793     0.002977807
7.868                -0.08905083    -0.006533077
7.88                 -0.09667551     -0.01320502
7.892                 -0.1088903     -0.01341513
7.904                 -0.1213987     -0.00561353
7.916                  -0.129741     0.009178874
7.928                 -0.1307103      0.02768835
7.94                  -0.1233719      0.04542216
7.952                  -0.109362      0.05808966
7.964                -0.09237011      0.06295888
7.976                -0.07697063      0.05971699
7.988                -0.06717589      0.05056205
8                    -0.06517154      0.03949818
8.012                -0.07063503      0.03106085
8.024                -0.08085213      0.02887906
8.036                -0.09159037       0.0345322
8.048                -0.09844825      0.04706236
8.06                 -0.09824911      0.06329302
8.072                -0.09003723       0.0788473
8.084                -0.07536405      0.08953711
8.096                 -0.0577797      0.09268059
8.108                -0.04169893      0.08793106
8.12                 -0.03100656       0.0773608
8.132                -0.02784639        0.064782
8.144                -0.03197297      0.05452874
8.156                -0.04086372      0.05009143
8.168                -0.05054459       0.0530362
8.18                 -0.05685835      0.06254476
8.192                -0.05676958       0.0757094
8.204                -0.04929601      0.08847684
8.216                -0.03578062      0.09693352
8.228                -0.01943313      0.09852241
8.24                -0.004297808      0.09281293
8.252                0.006016121      0.08159263
8.264                0.009441674      0.06826773
8.276                 0.00605697      0.05677518
8.288               -0.001990096      0.05035647
8.3                  -0.01119536      0.05057704
8.312                -0.01781175      0.05688801
8.324                -0.01900759      0.06685083
8.336                -0.01371147      0.07693634
8.348               -0.002893392       0.0836354
8.36                  0.01078691      0.08453083
8.372                 0.02383673      0.07900371
8.384                 0.03301387      0.06837055
8.396                 0.03629994      0.05542863
8.408                 0.03347125      0.04356809
8.42                  0.02610928      0.03573471
8.432                 0.01706764      0.03356186
8.444                0.009576118      0.03692615
8.456                0.006263835      0.04404415
8.468                0.008396504      0.05206035
8.48                  0.01554624      0.05793232
8.492                 0.02577486      0.05933901
8.504                 0.03625596      0.05534306
8.516                 0.04413539      0.04662216
8.528                 0.04736858       0.0352191
8.54                  0.04529124      0.02390263
8.552                 0.03876863      0.01534026
8.564                 0.02989662      0.01132967
8.576                 0.02135823      0.01230776
8.588                 0.01563326      0.01726753
8.6                   0.01429223      0.02409131
8.612                 0.01757238      0.03019064
8.624                 0.02434625      0.03326084
8.636                 0.03247871      0.03193332
8.648                 0.03946017      0.02614533
8.66                   0.0431299      0.01713106
8.672                 0.04228477     0.007046923
8.684                 0.03700566    -0.001655867
8.696                 0.02861625    -0.006930645
8.708                 0.01929237    -0.007710131
8.72                  0.01143609    -0.004198038
8.732                0.006992291     0.002200697
8.744                0.006899398     0.009288408
8.756                 0.01082762      0.01470553
8.768                 0.01727747      0.01660589
8.78                  0.02401107      0.01418602
8.792                 0.02869513     0.007918318
8.804                 0.02957436     -0.00058001
8.816                 0.02598322    -0.009007808
8.828                 0.01854794     -0.01504198
8.84                 0.009016525     -0.01701258
8.852              -0.0002389719     -0.01439585
8.864               -0.006908583    -0.007979226
8.876               -0.009421543    0.0003554177
8.888               -0.007415721      0.00817314
8.9                 -0.001857385       0.0131984
8.912                0.005230578      0.01399092
8.924                 0.01135844      0.01038358
8.936                 0.01430747     0.003547302
8.948                 0.01279776    -0.004343166
8.96                 0.006884266     -0.01074939
8.972               -0.002042835     -0.01352788
8.984                -0.01166009     -0.01158004
8.996                -0.01939987    -0.005195127
9.008                -0.02322158     0.004022544
9.02                 -0.02223198      0.01362562
9.032                -0.01696368       0.0210564
9.044               -0.009222865      0.02441975
9.056               -0.001548638      0.02306072
9.068                0.003554699      0.01776857
9.08                  0.00437901      0.01054199
9.092               0.0005345769      0.00398463
9.104               -0.006927899    0.0005141723
9.116                -0.01583416     0.001626392
9.128                -0.02354598     0.007439602
9.14                 -0.02776179      0.01665894
9.152                -0.02721342      0.02697093
9.164                -0.02204635      0.03574662
9.176                -0.01376858      0.04083756
9.188               -0.004786359      0.04122111
9.2                  0.002329139      0.03730005
9.212                0.005618914      0.03076812
9.224                0.004320857      0.02408668
9.236              -0.0009129219      0.01973539
9.248               -0.008226996      0.01946616
9.26                 -0.01513237      0.02378509
9.272                -0.01925831      0.03181481
9.284                -0.01905798       0.0415722
9.296                -0.01425785      0.05057132
9.308               -0.005921673      0.05656618
9.32                 0.003882587      0.05821004
9.332                 0.01270652      0.05543817
9.344                 0.01844618       0.0494668
9.356                 0.01995345      0.04241639
9.368                 0.01735725      0.03667734
9.38                  0.01200761      0.03420765
9.392                 0.00606592      0.03596773
9.404                0.001867005      0.04165258
9.416                0.001240244      0.04979269
9.428                0.004984756      0.05818851
9.44                  0.01264627      0.06454916
9.452                 0.02265399      0.06715125
9.464                 0.03277544      0.06533074
9.476                 0.04075734      0.05967065
9.488                 0.04497059      0.05183351
9.5                   0.04487835      0.04408662
9.512                 0.04119473      0.03865358
9.524                 0.03568837      0.03707409
9.536                 0.03068324      0.03975206
9.548                 0.02839377      0.04582261
9.56                  0.03027998      0.05338043
9.572                 0.03660658      0.06001246
9.584                 0.04633658      0.06349022
9.596                 0.05740055      0.06242722
9.608                 0.06727488      0.05671066
9.62                  0.07371289      0.04757344
9.632                 0.07541979       0.0372717
9.644                 0.07247084      0.02844587
9.656                 0.06633653      0.02334157
9.668                  0.0594892      0.02311669
9.68                  0.05468925       0.0274477
9.692                 0.05415186      0.03456964
9.704                 0.05884264      0.04175973
9.716                 0.06812572      0.04613875
9.728                 0.07989163      0.04555876
9.74                   0.0911509      0.03930504
9.752                 0.09893128      0.02838256
9.764                  0.1012127      0.01527457
9.776                 0.09760533     0.003222088
9.788                 0.08954138    -0.004771475
9.8                   0.07989467    -0.006906386
9.812                 0.07212027    -0.003211608
9.824                 0.06916785     0.004390022
9.836                 0.07250934      0.01262538
9.848                 0.08160226      0.01787639
9.86                  0.09398468      0.01734151
9.872                  0.1060004     0.009980708
9.884                  0.1139452    -0.003075995
9.896                  0.1152765     -0.01881496
9.908                  0.1094891     -0.03325641
9.92                  0.09835486     -0.04272664
9.932                 0.08541785     -0.04507811
9.944                 0.07488448     -0.04044994
9.956                 0.07025242      -0.0312972
9.968                 0.07312626     -0.02165092
9.98                  0.08262269     -0.01582666
9.992                  0.0955862     -0.01699397
10.004                 0.1075722     -0.02608136
10.016                 0.1142941     -0.04139659
10.028                 0.1130639     -0.05911452
10.04                  0.1037395      -0.0744971
10.052                0.08884443     -0.08345773
10.064                0.07279155     -0.08395206
10.076                0.06044751     -0.07671958
10.088                0.05550294     -0.06510491
10.1                  0.05919611      -0.0539925
10.112                0.06983353      -0.0481909
10.124                0.08329261     -0.05080044
10.136                0.09436236     -0.06211927
10.148                0.09848787     -0.07947465
10.16                  0.0933344     -0.09806126
10.172                0.07963294      -0.1125262
10.184                0.06100042      -0.1187782
10.196                0.04277116      -0.1154079
10.208                0.03021523      -0.1042251
10.22                 0.02673917     -0.08970706
10.232                0.03268481     -0.07752356
10.244                0.04515089      -0.0726212
10.256                0.05892149     -0.07751556
10.268                0.06820687     -0.09138041
10.28                 0.06861649      -0.1102638
10.292                0.05869226      -0.1283805
10.304                0.04046644      -0.1400585
10.316                0.01883272       -0.141686
10.328             -7.667846e-05      -0.1329876
10.34                 -0.0109704      -0.1171808
10.352               -0.01122726     -0.09993555
10.364               -0.00184327     -0.08747282
10.376                0.01284654     -0.08443874
10.388                0.02659759     -0.09228133
10.4                  0.03336658      -0.1086962
10.412                0.02939055      -0.1283508
10.424                 0.0145195      -0.1446606
10.436                -0.0076678      -0.1520256
10.448               -0.03102516      -0.1477674
10.46                -0.04890014      -0.1330966
10.472               -0.05640308      -0.1127634
10.484               -0.05210842     -0.09348975
10.496               -0.03859792     -0.08170161
10.508               -0.02164041     -0.08132647
10.52               -0.008269042      -0.0924117
10.532              -0.004397546       -0.111048
10.544                -0.0127829      -0.1306432
10.556               -0.03203609      -0.1441297
10.568               -0.05703213      -0.1463665
10.58                -0.08059882      -0.1359172
10.592               -0.09592495      -0.1155917
10.604               -0.09887757     -0.09155189
10.616               -0.08943933     -0.07126606
10.628               -0.07176707     -0.06099581
10.64                -0.05283628      -0.0636615
10.652               -0.04011565     -0.07781418
10.664                -0.0390495      -0.0980738
10.676               -0.05119634      -0.1168998
10.688               -0.07366009      -0.1271086
10.7                  -0.1000162      -0.1242948
10.712                 -0.122433      -0.1083405
10.724                -0.1342853     -0.08349679
10.736                -0.1323827     -0.05700028
10.748                -0.1180656     -0.03667872
10.76                -0.09679203     -0.02834264
10.772               -0.07634701     -0.03383406
10.784               -0.06426522     -0.05038736
10.796               -0.06532383      -0.0715218
10.808               -0.07994092     -0.08917291
10.82                 -0.1040146     -0.09635823
10.832                -0.1302598     -0.08949306
10.844                -0.1506016     -0.06958811
10.856                -0.1588342     -0.04193163
10.868                -0.1526671     -0.01436052
10.88                 -0.1344835     0.005307872
10.892                -0.1105631      0.01183772
10.904               -0.08902834     0.004287619
10.916               -0.07718962     -0.01368493
10.928               -0.07916286     -0.03502234
10.94                -0.09453544     -0.05157092
10.952                -0.1185113       -0.056733
10.964                -0.1434795     -0.04760184
10.976                -0.1614862     -0.02588895
10.988                -0.1668047     0.002648001
11                    -0.1577678      0.03008007
11.012                -0.1372796      0.04886702
11.024                 -0.111854      0.05427207
11.036               -0.08950345      0.04585607
11.048               -0.07716847      0.02758166
11.06                -0.07851583     0.006511358
11.072               -0.09280375    -0.009467813
11.084                -0.1151616      -0.0141553
11.096                -0.1381749    -0.004982365
11.108                -0.1542549      0.01621668
11.12                 -0.1580306      0.04383241
11.132                -0.1480085      0.07028808
11.144                -0.1269922       0.0884373
11.156                 -0.101148      0.09379107
11.168               -0.07803714      0.08587885
11.18                -0.06424548      0.06833621
11.192               -0.06335583      0.04771569
11.204               -0.07488595      0.03141482
11.216               -0.09450094      0.02537994
11.228                -0.1154084      0.03229826
11.24                 -0.1304826      0.05082443
11.252                -0.1344519      0.07605628
11.264                -0.1254785       0.1010881
11.276                -0.1056624       0.1191445
11.288               -0.08034117        0.125635
11.3                 -0.05642148       0.1195073
11.312               -0.04026891       0.1035077
11.324                -0.0358001      0.08329223
11.336               -0.04334467      0.06568124
11.348               -0.05960268      0.05659589
11.36                -0.07868638      0.05930034
11.372               -0.09391554      0.07346527
11.384               -0.09981846      0.09531511
11.396               -0.09374281       0.1187949
11.408               -0.07660859       0.1373938
11.42                 -0.0525948       0.1460775
11.432               -0.02787026       0.1427598
11.444              -0.008754706       0.1288886
11.456              0.0001442832       0.1089874
11.468              -0.002727336      0.08929877
11.48                -0.01543491      0.07593661
11.492               -0.03314504       0.0730899
11.504               -0.04955967      0.08180133
11.516               -0.05877147      0.09967205
11.528               -0.05699756       0.1215739
11.54                -0.04368846       0.1411578
11.552               -0.02169013       0.1527171
11.564               0.003586933       0.1528641
11.576                0.02575044       0.1415296
11.588                0.03930058       0.1219938
11.6                  0.04124992      0.09993601
11.612                0.03201424      0.08177493
11.624                0.01530937      0.07278274
11.636              -0.002923435      0.07552288
11.648               -0.01625551      0.08907317
11.66                -0.01966775       0.1092698
11.672               -0.01104915       0.1299112
11.684               0.008149492       0.1445759
11.696                0.03330933       0.1485253
11.708                0.05798138       0.1401283
11.72                 0.07578284         0.12138
11.732                0.08229623      0.09734747
11.744                0.07640611       0.0746954
11.756                 0.0606677      0.05971672
11.768                0.04058434      0.05645087
11.78                 0.02299548      0.06545222
11.792                0.01404549      0.08358619
11.804                 0.0173364       0.1049273
11.816                0.03282059       0.1225042
11.828                0.05677561       0.1303781
11.84                 0.08288109       0.1254352
11.852                 0.1040875       0.1083497
11.864                 0.1147237      0.08341949
11.876                 0.1122113      0.05731123
11.888                0.09786591      0.03708114
11.9                  0.07653516      0.02806068
11.912                0.05517128      0.03224257
11.924                0.04075953      0.04765759
11.936                0.03822076      0.06893772
11.948                0.04891962      0.08890507
11.96                 0.07023173       0.1007153
11.972                0.09630656      0.09991379
11.984                 0.1198035       0.0857857
11.996                 0.1340837      0.06159041
12.008                 0.1352018      0.03360499
12.02                  0.1230981     0.009259054
12.032                 0.1016312    -0.005082159
12.044                0.07743782    -0.006023169
12.056                0.05795887     0.005839436
12.068                0.04922078      0.02608517
12.08                 0.05403472      0.04777969
12.092                0.07115192      0.06353662
12.104                0.09562764       0.0677167
12.116                 0.1202855      0.05810916
12.128                 0.1378467      0.03659508