! TOUCHSTONE file generated by CST MICROWAVE STUDIO
! Date and time: Tue Jan  7 16:51:26 2025
! Project name: 2port_RIS_10V_22x45_TimeSolver_SmallHorn_D_1000_alfa_0_Angle_0.cst
! Parameters = {AA=1.20852; AB_sqInv=0.684378; Angle=0; BB=0.025494; C0=2.097; Cj=0.359671; Cp=0.075; Ct=0.433746; D=1000; ImZ=-36.6931; L=290; L0=30; Lp=0.45; M=1.199; R=5.41; ReZ=3.70249; Rt=3.70249; V=10; Vj=2.984; W=180; a=10; alfa=0; b=10; f=0.01; height=0.8; horn_x=90; horn_y=145; horn_z=310; th=0.035}
! Header version: 2018
! Port assignment regex: !\s*Touchstone port\s*([0-9]+)\s*=\s*(CST MWS port|CST DS port)\s*([0-9]+|Zmin|Zmax)\s*\(\"(.*)\"\)(\s*mode\s*([0-9]+))?.*
! Touchstone port assignment:
! Touchstone port 1 = CST MWS port 1 ("")
! S-Parameters are not renormalized. Unphysical impedance of 0 will be written to the file.
# GHz S RI R 0
5                    0.009294013     0.001174552
5.012                0.008219633    -0.004536917
5.024                0.003919851    -0.008404195
5.036               -0.001818968    -0.008859325
5.048               -0.006633135    -0.005740655
5.06                -0.008552093   -0.0003499948
5.072               -0.006802036     0.005088943
5.084                -0.00211526     0.008345822
5.096                0.003578253     0.008096262
5.108                0.007947385     0.004458643
5.12                 0.009216097     -0.00106226
5.132                0.006887431    -0.006198518
5.144                0.001940435    -0.008851323
5.156                -0.00357787    -0.007949427
5.168               -0.007395664    -0.003882953
5.18                -0.007947624     0.001662887
5.192               -0.005012996     0.006403508
5.204               0.0001994461     0.008393123
5.216                0.005552052      0.00682054
5.228                0.008857465     0.002337399
5.24                 0.008775054    -0.003213799
5.252                0.005357646    -0.007558493
5.264               2.582997e-05    -0.008923549
5.276                -0.00501796     -0.00676273
5.288               -0.007694197    -0.001977646
5.3                 -0.006898511     0.003455016
5.312               -0.002952638     0.007296022
5.324                0.002529949     0.007962242
5.336                0.007307558     0.005174917
5.348                0.009430441    7.244457e-05
5.36                 0.008040274    -0.005257888
5.372                 0.00372156    -0.008636786
5.384               -0.001738728    -0.008687064
5.396               -0.006084453    -0.005398627
5.408               -0.007515981   -0.0001328212
5.42                -0.005428858     0.004935622
5.432              -0.0006626596       0.0077105
5.444                0.004842251     0.007034538
5.456                0.008839878     0.003165521
5.468                0.009700162    -0.002327467
5.48                 0.007079326    -0.007205965
5.492                0.002063693    -0.009479932
5.504               -0.003273058    -0.008225588
5.516               -0.006718927    -0.003967689
5.528               -0.006831774     0.001531726
5.54                 -0.00353424     0.005993142
5.552                0.001849639     0.007554265
5.564                 0.00713315     0.005536875
5.576                 0.01016208     0.000730481
5.588                 0.00970048    -0.004925656
5.6                  0.005943385    -0.009134374
5.612               0.0004441759     -0.01018357
5.624               -0.004516752    -0.007653918
5.636               -0.006865839    -0.002599337
5.648               -0.005591103     0.002877126
5.66                -0.001166066     0.006481694
5.672                0.004634349     0.006672899
5.684                0.009454739     0.003302263
5.696                 0.01132492    -0.002313059
5.708                0.009475403    -0.007920344
5.72                 0.004665943     -0.01125146
5.732               -0.001112494     -0.01095833
5.744               -0.005446096    -0.007179033
5.756               -0.006489549    -0.001497675
5.768               -0.003734567     0.003692165
5.78                 0.001763518     0.006165439
5.792                0.007801014      0.00478668
5.804                 0.01192041   -5.950931e-06
5.816                 0.01242236    -0.006358957
5.828                0.009080031     -0.01174824
5.84                 0.003256845     -0.01401242
5.852               -0.002630224     -0.01225348
5.864               -0.006091725    -0.007231529
5.876               -0.005594591    -0.001082068
5.888                 -0.0012156     0.003540166
5.9                  0.005357033     0.004548786
5.912                 0.01148768     0.001301195
5.924                 0.01466318    -0.005103447
5.936                 0.01353632     -0.01223917
5.948                0.008512374     -0.01732621
5.96                 0.001625843     -0.01837433
5.972               -0.004259039     -0.01502934
5.984               -0.006612137    -0.008766363
5.996               -0.004295598    -0.002332761
6.008                0.001922627     0.001350612
6.02                 0.009627188     0.000392685
6.032                 0.01570244    -0.005252662
6.044                 0.01759952     -0.01370753
6.056                 0.01441179     -0.02188352
6.068                0.007309199     -0.02672076
6.08               -0.0008700386     -0.02646059
6.092                -0.00673294     -0.02142892
6.104               -0.007718957     -0.01398914
6.116               -0.003200392    -0.007650973
6.128                0.005168942    -0.005667256
6.14                  0.01403284    -0.009674571
6.152                 0.01964309     -0.01893941
6.164                 0.01939594     -0.03054917
6.176                 0.01297322     -0.04051644
6.188                0.002597192     -0.04538958
6.2                  -0.00775464     -0.04373449
6.212                -0.01391212     -0.03687013
6.224                -0.01325718     -0.02850966
6.236               -0.005945428      -0.0233839
6.248                0.004933581     -0.02534365
6.26                  0.01439939     -0.03568256
6.272                 0.01749201     -0.05238639
6.284                 0.01133869     -0.07069329
6.296               -0.003456434     -0.08485279
6.308                -0.02273338     -0.09048064
6.32                 -0.04017664     -0.08661492
6.332                -0.04979661     -0.07661161
6.344                -0.04863288     -0.06738457
6.356                -0.03864824     -0.06708206
6.368                -0.02698238      -0.0818919
6.38                 -0.02425929      -0.1130618
6.392                -0.04132092      -0.1552512
6.404                -0.08535599       -0.196963
6.416                 -0.1566915      -0.2231434
6.428                 -0.2473934      -0.2193069
6.44                  -0.3423025      -0.1759851
6.452                 -0.4223768     -0.09210856
6.464                  -0.469458      0.02379188
6.476                  -0.471099       0.1550528
6.488                 -0.4240149       0.2806751
6.5                    -0.335124        0.380402
6.512                 -0.2198532       0.4396229
6.524                -0.09821219        0.452711
6.536                 0.01020889       0.4238842
6.548                 0.09087178       0.3654358
6.56                   0.1372724       0.2939633
6.572                  0.1515359       0.2257814
6.584                  0.1426376       0.1728771
6.596                  0.1229622        0.140512
6.608                   0.104352       0.1270031
6.62                  0.09485178       0.1255161
6.632                 0.09703691       0.1271146
6.644                  0.1082421       0.1239967
6.656                  0.1223918       0.1119037
6.668                  0.1326634      0.09105017
6.68                   0.1340389      0.06545766
6.692                  0.1249318      0.04109825
6.704                  0.1074689      0.02358982
6.716                 0.08647943      0.01625233
6.728                 0.06766643      0.01913025
6.74                   0.0556488      0.02920719
6.752                 0.05253725      0.04162455
6.764                 0.05746419      0.05140506
6.776                 0.06713355       0.0550659
6.788                 0.07711591      0.05160259
6.8                   0.08339861      0.04258014
6.812                 0.08366449      0.03138323
6.824                 0.07791191       0.0219434
6.836                 0.06827641      0.01739809
6.848                 0.05818241       0.0191144
6.86                   0.0511518      0.02635364
6.872                 0.04967256       0.0366259
6.884                 0.05447316      0.04656568
6.896                 0.06439176      0.05301612
6.908                 0.07683131      0.05397548
6.92                  0.08861783      0.04913257
6.932                 0.09697644      0.03986356
6.944                  0.1003306      0.02872981
6.956                 0.09870432      0.01865626
6.968                 0.09363732      0.01204617
6.98                  0.08766348      0.01008764
6.992                 0.08352215      0.01243869
7.004                  0.0833343      0.01736408
7.016                 0.08797581      0.02227166
7.028                  0.0968196      0.02448896
7.04                   0.1079149      0.02205898
7.052                   0.118552      0.01432987
7.064                  0.1260553     0.002168754
7.076                  0.1285791     -0.01226808
7.088                  0.1256749     -0.02615284
7.1                    0.1184571     -0.03682188
7.112                  0.1092999     -0.04258832
7.124                  0.1011401     -0.04328499
7.136                 0.09657886     -0.04035931
7.148                 0.09705172     -0.03646895
7.16                   0.1023297     -0.03467945
7.172                  0.1105263     -0.03749682
7.184                  0.1186345     -0.04603508
7.196                  0.1234494     -0.05959348
7.208                  0.1225965     -0.07580137
7.22                   0.1153379     -0.09131256
7.232                  0.1028782       -0.102849
7.244                 0.08804922      -0.1082669
7.256                 0.07444511      -0.1072942
7.268                 0.06527273      -0.1016799
7.28                  0.06228629     -0.09468093
7.292                 0.06516518     -0.09003066
7.304                 0.07155985     -0.09071307
7.316                 0.07781478     -0.09794661
7.328                  0.0801493      -0.1107248
7.34                  0.07591547      -0.1260855
7.352                 0.06451254      -0.1400413
7.364                 0.04764233      -0.1488755
7.376                 0.02880189      -0.1503803
7.388                 0.01216578      -0.1446181
7.4                  0.001220488      -0.1339422
7.412               -0.002397494      -0.1222534
7.424               0.0005345438      -0.1137296
7.436                0.007056993      -0.1114449
7.448                 0.01298845      -0.1163389
7.46                  0.01430264      -0.1268843
7.472                0.008466802      -0.1395705
7.484                -0.00470545      -0.1500496
7.496                -0.02297297      -0.1545654
7.508                -0.04238819      -0.1511948
7.52                 -0.05858351      -0.1404864
7.532                -0.06819743      -0.1252869
7.544                -0.06996958      -0.1098119
7.556                -0.06514427     -0.09826961
7.568                -0.05705242      -0.0934924
7.58                  -0.0500145     -0.09602463
7.592                -0.04792755      -0.1039627
7.604                -0.05300191      -0.1135927
7.616                -0.06505612      -0.1206098
7.628                -0.08159414      -0.1215164
7.64                 -0.09862907      -0.1147444
7.652                 -0.1119769      -0.1011408
7.664                 -0.1185957      -0.0836731
7.676                 -0.1175406     -0.06645771
7.688                 -0.1102332     -0.05343889
7.7                  -0.09997453     -0.04714303
7.712                -0.09086933     -0.04790506
7.724                -0.08651568     -0.05380265
7.736                -0.08887935     -0.06130379
7.748                -0.09770366     -0.06640866
7.76                  -0.1106282     -0.06591572
7.772                 -0.1239639       -0.058413
7.784                  -0.133867     -0.04469101
7.796                 -0.1375376     -0.02746241
7.808                 -0.1340705     -0.01049106
7.82                  -0.1247035     0.002586805
7.832                 -0.1123998     0.009378986
7.844                 -0.1009073     0.009448671
7.856                -0.09359574     0.004413097
7.868                -0.09243081    -0.002589442
7.88                 -0.09739606    -0.007887559
7.892                 -0.1065296    -0.008410552
7.904                  -0.116553    -0.002620843
7.916                 -0.1238914     0.009034561
7.928                 -0.1257696      0.02428233
7.94                  -0.1210502      0.03973389
7.952                 -0.1105658      0.05192655
7.964                -0.09684865      0.05837594
7.976                 -0.0833481      0.05832121
7.988                -0.07337621      0.05294108
8                    -0.06910352      0.04497926
8.012                -0.07090825      0.03789717
8.024                -0.07727422      0.03481354
8.036                -0.08526603       0.0375535
8.048                -0.09143477      0.04609598
8.06                 -0.09287723      0.05858654
8.072                -0.08812578      0.07191014
8.084                -0.07759658      0.08264909
8.096                -0.06345998      0.08813147
8.108                -0.04897263      0.08724958
8.12                 -0.03747639      0.08079623
8.132                -0.03137322      0.07121561
8.144                -0.03139093      0.06184601
8.156                -0.03636723      0.05588779
8.168                -0.04361852        0.055417
8.18                 -0.04977805      0.06074955
8.192                -0.05184289      0.07035295
8.204                 -0.0481033      0.08133169
8.216                -0.03866656      0.09033306
8.228                -0.02541309      0.09458969
8.24                  -0.0114025      0.09277312
8.252               8.248901e-05      0.08539367
8.264                0.006552299      0.07462537
8.276                0.007070174      0.06361586
8.288                0.002520595      0.05550222
8.3                 -0.004691154       0.0524429
8.312                -0.01140666      0.05496752
8.324                -0.01470333      0.06184199
8.336                 -0.0127927      0.07048225
8.348               -0.005550901      0.07777779
8.36                 0.005476117      0.08106067
8.372                 0.01758232      0.07891673
8.384                 0.02775641      0.07159162
8.396                 0.03360853       0.0608769
8.408                 0.03408181      0.04952563
8.42                  0.02973614      0.04039108
8.432                 0.02253106      0.03556101
8.444                 0.01519047      0.03575211
8.456                 0.01035752      0.04013978
8.468                0.009803352      0.04665854
8.48                  0.01392693      0.05266448
8.492                 0.02168423      0.05574559
8.504                 0.03095016      0.05443146
8.516                 0.03918662      0.04859532
8.528                 0.04420494      0.03944317
8.54                  0.04479407      0.02911214
8.552                 0.04103656      0.02001415
8.564                 0.03423584      0.01412795
8.576                 0.02649415      0.01244661
8.588                 0.02007966      0.01473165
8.6                   0.01677331      0.01962872
8.612                 0.01738122      0.02509491
8.624                 0.02154191      0.02900262
8.636                 0.02786858      0.02974342
8.648                 0.03437218      0.02666437
8.66                  0.03903675      0.02022367
8.672                 0.04038375      0.01183388
8.684                 0.03787155     0.003446733
8.696                  0.0320271    -0.002999585
8.708                 0.02428138    -0.006117027
8.72                  0.01656006    -0.005443595
8.732                 0.01074433     -0.00155975
8.744                0.008149673     0.004082745
8.756                0.009163812     0.009570799
8.768                 0.01314192      0.01306637
8.78                  0.01858835      0.01332262
8.792                  0.0235764      0.01003761
8.804                 0.02629239     0.003945705
8.816                 0.02555353    -0.003382234
8.828                  0.0211537     -0.00997872
8.84                  0.01393557     -0.01403928
8.852                0.005562881     -0.01444458
8.864                 -0.0019483     -0.01109394
8.876               -0.006809247    -0.004949263
8.888               -0.007982457     0.002230317
8.9                 -0.005494971     0.008392312
8.912               -0.000443765      0.01179015
8.924                0.005315125       0.0115023
8.936                0.009707768     0.007715021
8.948                  0.0110566     0.001679626
8.96                 0.008584966    -0.004648672
8.972                0.002658548    -0.009186997
8.984               -0.005312674      -0.0103456
8.996                -0.01328652    -0.007506612
9.008                -0.01919343    -0.001214865
9.02                 -0.02155301     0.006979089
9.032                -0.01991608      0.01497816
9.044                -0.01499839      0.02076262
9.056               -0.008465572       0.0229906
9.068               -0.002434242       0.0213947
9.08                 0.001159387      0.01685616
9.092                0.001133623      0.01113635
9.104               -0.002593122     0.006348608
9.116               -0.008985943     0.004330446
9.128                 -0.0162071     0.006103816
9.14                 -0.02216244      0.01158175
9.152                -0.02511588      0.01960406
9.164                -0.02419094      0.02828593
9.176                -0.01961468      0.03557222
9.188                -0.01263857      0.03983247
9.2                 -0.005165322      0.04032423
9.212               0.0008053968      0.03739435
9.224                0.003750307      0.03236608
9.236                0.003052131      0.02715003
9.248              -0.0008331436      0.02369411
9.26                -0.006513828       0.0234294
9.272                -0.01206164      0.02686678
9.284                -0.01555825      0.03345449
9.296                -0.01563627      0.04173341
9.308                -0.01186561      0.04974509
9.32                -0.004878948      0.05557963
9.332                0.003798307      0.05791244
9.344                 0.01216851      0.05638229
9.356                 0.01831938      0.05170458
9.368                 0.02096634      0.04548454
9.38                  0.01982871      0.03977643
9.392                 0.01573083      0.03650554
9.404                 0.01039148      0.03691179
9.416                0.005951576      0.04117266
9.428                0.004364972      0.04831984
9.44                 0.006822295      0.05648455
9.452                 0.01337592      0.06341454
9.464                 0.02288478      0.06712329
9.476                 0.03330882      0.06648658
9.488                 0.04228291      0.06160687
9.5                   0.04781102      0.05382601
9.512                 0.04887802      0.04536568
9.524                 0.04578952       0.0386875
9.536                 0.04012439      0.03575421
9.548                 0.03429635      0.03741416
9.56                  0.03084265      0.04310398
9.572                  0.0316482      0.05097437
9.584                 0.03734284      0.05841823
9.596                 0.04706703      0.06285173
9.608                 0.05869228      0.06251425
9.62                  0.06944403      0.05703695
9.632                 0.07674444      0.04759404
9.644                 0.07901724       0.0365754
9.656                 0.07619955      0.02687055
9.668                 0.06979135      0.02097889
9.68                  0.06241593      0.02022302
9.692                 0.05701879      0.02431622
9.704                 0.05595143      0.03142776
9.716                 0.06022738      0.03873409
9.728                 0.06918842      0.04328948
9.74                  0.08069164      0.04294483
9.752                 0.09176406      0.03702541
9.764                 0.09952202      0.02655164
9.776                  0.1020677      0.01393051
9.788                 0.09908073     0.002212765
9.8                   0.09191791    -0.005851912
9.812                  0.0831913    -0.008665366
9.824                 0.07595657    -0.006271536
9.836                 0.07276737     -0.00033572
9.848                 0.07489044     0.006377725
9.86                  0.08192356      0.01086303
9.872                 0.09193052      0.01079744
9.884                  0.1020452     0.005246812
9.896                  0.1093535    -0.005061456
9.908                  0.1117784      -0.0179751
9.92                   0.1086998     -0.03058328
9.932                  0.1011242     -0.04010288
9.944                 0.09136196     -0.04471343
9.956                 0.08231805     -0.04409036
9.968                 0.07661504      -0.0394829
9.98                  0.07581379     -0.03332157
9.992                  0.0799602     -0.02848057
10.004                0.08758658     -0.02741863
10.016                0.09615943     -0.03145299
10.028                  0.102836     -0.04037685
10.04                  0.1053048      -0.0525273
10.052                 0.1024648      -0.0652791
10.064                0.09474823     -0.07581747
10.076                0.08399462     -0.08196499
10.088                0.07291422     -0.08282341
10.1                  0.06429455     -0.07904448
10.112                0.06017821     -0.07264936
10.124                0.06125029     -0.06644447
10.136                0.06661592     -0.06319772
10.148                0.07404081      -0.0648112
10.16                  0.0805941     -0.07173308
10.172                 0.0835153     -0.08278851
10.184                0.08105402      -0.0954928
10.196                 0.0730309      -0.1067695
10.208                0.06093978      -0.1138726
10.22                  0.0475419      -0.1152398
10.232                0.03605434      -0.1110143
10.244                 0.0291652      -0.1030576
10.256                0.02817401      -0.0944258
10.268                0.03253284     -0.08844917
10.28                 0.03995311     -0.08768491
10.292                0.04707151     -0.09307155
10.304                0.05049028      -0.1035657
10.316                0.04787345      -0.1164026
10.328                0.03874673      -0.1279273
10.34                  0.0247237      -0.1347525
10.352               0.009056546      -0.1348779
10.364              -0.004373171      -0.1284001
10.376               -0.01231437       -0.117556
10.388               -0.01324834      -0.1060556
10.4                -0.007954699      -0.0978944
10.412              0.0006725746     -0.09602326
10.424                0.00852994      -0.1013198
10.436                0.01165302      -0.1122231
10.448               0.007567658      -0.1251852
10.46               -0.003819362      -0.1358161
10.472               -0.02011381      -0.1403578
10.484               -0.03717862      -0.1369916
10.496               -0.05050363      -0.1265197
10.508               -0.05674905      -0.1121638
10.52                -0.05493149     -0.09851796
10.532               -0.04682748     -0.08999234
10.544               -0.03642717     -0.08927481
10.556               -0.02859838     -0.09634871
10.568               -0.02740504      -0.1084303
10.58                -0.03466063      -0.1208759
10.592                -0.0492336      -0.1287682
10.604               -0.06737258      -0.1286426
10.616               -0.08396564      -0.1197462
10.628               -0.09431482      -0.1043692
10.64                -0.09580909     -0.08710717
10.652               -0.08889963     -0.07328424
10.664               -0.07701002     -0.06707816
10.676               -0.06538553      -0.0700059
10.688               -0.05926363     -0.08032113
10.7                 -0.06200195      -0.0935619
10.712               -0.07383198      -0.1040828
10.724               -0.09170057      -0.1070489
10.736                -0.1102839       -0.100188
10.748                -0.1238404     -0.08466831
10.76                 -0.1282585      -0.0647641
10.772                -0.1225709     -0.04639891
10.784                -0.1093777     -0.03506176
10.796               -0.09400017     -0.03382769
10.808               -0.08263806     -0.04219593
10.82                -0.08016603      -0.0561819
10.832               -0.08835167     -0.06966078
10.844                -0.1051435     -0.07651082
10.856                -0.1253094     -0.07280768
10.868                -0.1422291     -0.05828558
10.88                 -0.1502257     -0.03652521
10.892                -0.1466167     -0.01377242
10.904                -0.1327444     0.003222454
10.916                -0.1135961     0.009595181
10.928               -0.09611888     0.004142211
10.94                -0.08679871      -0.0101655
10.952               -0.08935004     -0.02713861
10.964                -0.1033363      -0.0394868
10.976                -0.1242297     -0.04137065
10.988                -0.1449162     -0.03049469
11                    -0.1581428    -0.008993781
11.012                -0.1590622      0.01722145
11.024                -0.1469803      0.04045683
11.036                 -0.125682      0.05388845
11.048                -0.1021961      0.05395823
11.06                -0.08440824      0.04167107
11.072               -0.07833794        0.022324
11.084               -0.08602238     0.003740892
11.096                -0.1047503    -0.006392963
11.108                -0.1279268     -0.00318412
11.12                 -0.1472883      0.01374655
11.132                -0.1557159      0.04007425
11.144                -0.1496853      0.06819337
11.156                -0.1305091      0.08977578
11.168                 -0.103937       0.0985974
11.18                -0.07824335      0.09266746
11.192               -0.06144604      0.07493292
11.204               -0.05859861      0.05231382
11.216                -0.0700745      0.03339313
11.228                -0.0914237      0.02554106
11.24                 -0.1148494      0.03244315
11.252                -0.1318057      0.05286295
11.264                -0.1358428      0.08104988
11.276                -0.1247462       0.1086497
11.288                -0.1012633       0.1274722
11.3                  -0.0721825       0.1321912
11.312               -0.04608539       0.1220833
11.324               -0.03052543       0.1012385
11.336               -0.02956778      0.07719242
11.348               -0.04249369      0.05844428
11.36                -0.06407734      0.05168937
11.372               -0.08632251      0.05967057
11.384                -0.1010723      0.08033743
11.396                -0.1026328       0.1075626
11.408               -0.08956409       0.1331569
11.42                -0.06508062       0.1495097
11.432               -0.03596006       0.1519986
11.444               -0.01034166       0.1404046
11.456               0.004863029       0.1189059
11.468               0.006118304      0.09468723
11.48               -0.005692377      0.07563566
11.492               -0.02562745      0.06786829
11.504               -0.04630248       0.0738678
11.516               -0.06022407      0.09178765
11.528               -0.06210091       0.1161096
11.54                -0.05042227       0.1394123
11.552               -0.02784167       0.1546786
11.564             -0.0002831946       0.1574215
11.576                0.02492053       0.1469913
11.588                0.04126963       0.1266928
11.6                  0.04503301        0.102711
11.612                0.03631042      0.08220231
11.624                 0.0189279      0.07113983
11.636             -0.0007691287      0.07255864
11.648               -0.01584237      0.08570711
11.66                -0.02082227       0.1063308
11.672               -0.01329974       0.1279796
11.684               0.005405656       0.1439346
11.696                0.03067699       0.1491842
11.708                0.05598582       0.1418746
11.72                 0.07481778       0.1238255
11.732                0.08257551      0.09997315
11.744                0.07791056      0.07691346
11.756                0.06310564      0.06097115
11.768                0.04340201      0.05635405
11.78                 0.02546877      0.06392354
11.792                 0.0154555      0.08093598
11.804                0.01718955       0.1018321
11.816                0.03104072        0.119851
11.828                 0.0537871       0.1290069
11.84                 0.07953084        0.125856
11.852                 0.1014082       0.1105372
11.864                 0.1136044      0.08677143
11.876                 0.1130847      0.06080458
11.888                 0.1005296      0.03959013
11.9                  0.08018223      0.02873405
11.912                0.05863495      0.03080821
11.924                0.04289685      0.04454011
11.936                0.03830461      0.06513732
11.948                 0.0468991      0.08567079
11.96                 0.06676358      0.09912224
11.972                0.09254022       0.1004922
11.984                 0.1169914      0.08833501
11.996                 0.1331526      0.06524586
12.008                 0.1364364      0.03713572
12.02                  0.1260487       0.0114924
12.032                 0.1052775    -0.004860362
12.044                0.08054779    -0.007832713
12.056                0.05951482     0.002663928
12.068                0.04876077      0.02264811
12.08                 0.05179217       0.0452335
12.092                0.06795041      0.06268706
12.104                0.09257571      0.06876279
12.116                 0.1183863      0.06060343
12.128                 0.1376619       0.0396286