! TOUCHSTONE file generated by CST MICROWAVE STUDIO
! Date and time: Tue Jan  7 13:05:31 2025
! Project name: 2port_RIS_5V_22x45_TimeSolver_SmallHorn_D_1000_alfa_0_Angle_0.cst
! Parameters = {AA=1.1164; AB_sqInv=0.80193; Angle=0; BB=0.025494; C0=2.097; Cj=0.644347; Cp=0.075; Ct=0.71614; D=1000; ImZ=-22.224; L=290; L0=30; Lp=0.45; M=1.199; R=5.41; ReZ=4.33844; Rt=4.33844; V=5; Vj=2.984; W=180; a=10; alfa=0; b=10; f=0.01; height=0.8; horn_x=90; horn_y=145; horn_z=310; th=0.035}
! Header version: 2018
! Port assignment regex: !\s*Touchstone port\s*([0-9]+)\s*=\s*(CST MWS port|CST DS port)\s*([0-9]+|Zmin|Zmax)\s*\(\"(.*)\"\)(\s*mode\s*([0-9]+))?.*
! Touchstone port assignment:
! Touchstone port 1 = CST MWS port 1 ("")
! S-Parameters are not renormalized. Unphysical impedance of 0 will be written to the file.
# GHz S RI R 0
5                    0.003877842    -0.008622662
5.012               -0.001892728    -0.009044945
5.024               -0.006748628    -0.005938398
5.036               -0.008771299   -0.0005565622
5.048               -0.007173925     0.004955948
5.06                -0.002605045     0.008416241
5.072                0.003116508     0.008465675
5.084                 0.00772722     0.005101712
5.096                0.009415829   -0.0003289766
5.108                 0.00753654    -0.005670244
5.12                 0.002857928    -0.008812989
5.132               -0.002748249    -0.008528524
5.144               -0.007052479    -0.004949824
5.156               -0.008350595    0.0004876412
5.168               -0.006135088     0.005619476
5.18                -0.001290447     0.008411403
5.192                0.004262547     0.007763127
5.204                 0.00833062     0.003939671
5.216                0.009316551    -0.001538697
5.228                0.006848775    -0.006502391
5.24                 0.001924183    -0.008993009
5.252               -0.003490686    -0.008037461
5.264               -0.007240633    -0.004030033
5.276                -0.00783514     0.001427457
5.288               -0.005036485     0.006162647
5.3                 4.914384e-05     0.008293759
5.312                0.005412416     0.006973781
5.324                0.008938012     0.002723737
5.336                0.009242292    -0.002775951
5.348                0.006220034    -0.007352575
5.36                 0.001084509    -0.009202158
5.372               -0.004114401    -0.007603532
5.384               -0.007302776    -0.003203126
5.396               -0.007204224     0.002241856
5.408               -0.003845294     0.006559988
5.42                 0.001455193     0.008026038
5.432                0.006608619     0.006044739
5.444                0.009584157     0.001387148
5.456                0.009213928    -0.004114165
5.468                0.005656907    -0.008290818
5.48                0.0003374807    -0.009498231
5.492                -0.00461766     -0.00726881
5.504               -0.007222057    -0.002499627
5.516               -0.006418088     0.002900687
5.528               -0.002499016     0.006767092
5.54                 0.003003798      0.00753702
5.552                0.007925292     0.004872743
5.564                 0.01032468   -0.0002003229
5.576                0.009257566    -0.005695991
5.588                 0.00515555     -0.00945289
5.6                -0.0003390233    -0.009993174
5.612               -0.005020242    -0.007113895
5.624               -0.006993214    -0.001974833
5.636               -0.005430143     0.003354937
5.648              -0.0009067671     0.006714922
5.66                 0.004817266     0.006713005
5.672                0.009490692     0.003285744
5.684                 0.01126408    -0.002265822
5.696                0.009430719    -0.007783365
5.708                0.004719072     -0.01110446
5.72                -0.000983784     -0.01092556
5.732               -0.005373249     -0.00733151
5.744               -0.006642717    -0.001777353
5.756               -0.004211066     0.003476433
5.768                0.001029812     0.006256734
5.78                   0.0070519      0.00534722
5.792                 0.01148588    0.0009877782
5.804                 0.01256354    -0.005200137
5.816                0.009834453      -0.0108408
5.828                0.004367823     -0.01374266
5.84                -0.001649078      -0.0127789
5.852               -0.005766091    -0.008358132
5.864               -0.006245982    -0.002290537
5.876               -0.002774196     0.002908507
5.888                0.003385564     0.005010362
5.9                  0.009863057     0.002971221
5.912                  0.0141056    -0.002623694
5.924                 0.01439606     -0.00975681
5.936                 0.01056099     -0.01575193
5.948                0.004079395     -0.01833027
5.96                -0.002466101     -0.01653472
5.972               -0.006393687     -0.01115075
5.984               -0.005994157    -0.004442608
5.996               -0.001244818     0.000708725
6.008                0.006129216     0.001939528
6.02                  0.01329019     -0.00163457
6.032                 0.01738771     -0.00901706
6.044                 0.01670014     -0.01766756
6.056                 0.01136404     -0.02446767
6.068                0.003386745     -0.02695256
6.08                -0.004088711     -0.02432729
6.092               -0.008001305      -0.0178548
6.104                -0.00660611      -0.0104368
6.116              -0.0002336986    -0.005521765
6.128                0.008747732    -0.005746986
6.14                  0.01678734     -0.01184412
6.152                 0.02052051     -0.02225662
6.164                 0.01813067     -0.03365587
6.176                 0.01016058     -0.04219575
6.188              -0.0005796789     -0.04504472
6.2                  -0.01002185     -0.04160001
6.212                -0.01441769      -0.0338814
6.224                -0.01189258     -0.02589678
6.236               -0.003354092     -0.02216498
6.248                0.007650833     -0.02592615
6.26                  0.01615025     -0.03772943
6.272                  0.0176333     -0.05498984
6.284                0.009913852     -0.07277218
6.296               -0.005771268      -0.0856015
6.308                 -0.0249394     -0.08968351
6.32                 -0.04137993     -0.08470287
6.332                -0.04957133     -0.07444904
6.344                -0.04717284     -0.06588674
6.356                -0.03665211     -0.06682972
6.368                -0.02533265      -0.0829045
6.38                  -0.0236381      -0.1148185
6.392                -0.04192818      -0.1569408
6.404                -0.08684585      -0.1978477
6.416                  -0.158347      -0.2228772
6.428                 -0.2484562      -0.2180727
6.44                   -0.342311      -0.1743942
6.452                 -0.4213642     -0.09091675
6.464                 -0.4679271      0.02402983
6.476                 -0.4697871       0.1542318
6.488                 -0.4235561       0.2791857
6.5                   -0.3357573       0.3789526
6.512                 -0.2213077       0.4389177
6.524                 -0.0998216       0.4531252
6.536                0.009210418       0.4252818
6.548                 0.09100197       0.3672138
6.56                   0.1385531       0.2953075
6.572                  0.1534588       0.2260275
6.584                  0.1443667       0.1718183
6.596                    0.12369       0.1385184
6.608                  0.1036613       0.1248914
6.62                  0.09292406       0.1242164
6.632                 0.09461111       0.1272702
6.644                  0.1063293       0.1256659
6.656                  0.1218573       0.1144975
6.668                   0.133848      0.09354182
6.68                   0.1365812      0.06679025
6.692                  0.1278766       0.0406266
6.704                   0.109629      0.02137459
6.716                  0.0869135      0.01307666
6.728                  0.0660798      0.01621943
6.74                  0.05254948      0.02775308
6.752                 0.04907284      0.04230062
6.764                 0.05499223      0.05406838
6.776                 0.06668796      0.05877441
6.788                 0.07898005      0.05495293
6.8                   0.08695955       0.0442431
6.812                 0.08761677      0.03063083
6.824                 0.08074185      0.01895843
6.836                 0.06884523      0.01323708
6.848                 0.05618205      0.01532792
6.86                  0.04725158      0.02440265
6.872                 0.04529139      0.03731605
6.884                 0.05125634      0.04971946
6.896                 0.06358797      0.05751489
6.908                 0.07880759      0.05816298
6.92                  0.09270114      0.05143167
6.932                   0.101688      0.03937409
6.944                   0.103929      0.02557933
6.956                 0.09983582      0.01396747
6.968                 0.09184696     0.007529366
6.98                   0.0835743     0.007408905
6.992                 0.07861229      0.01260009
7.004                 0.07939412      0.02032848
7.016                 0.08644766      0.02697274
7.028                  0.0982662      0.02922269
7.04                   0.1118137      0.02510986
7.052                  0.1234903       0.0145988
7.064                  0.1302508   -0.0004295721
7.076                  0.1305309     -0.01678251
7.088                   0.124705     -0.03095163
7.1                    0.1149444     -0.04019133
7.112                  0.1045273     -0.04335138
7.124                 0.09681734     -0.04121414
7.136                 0.09422191     -0.03623826
7.148                 0.09744664     -0.03178947
7.16                   0.1052723      -0.0310927
7.172                  0.1149231     -0.03622405
7.184                  0.1229167     -0.04745048
7.196                  0.1261407       -0.063122
7.208                  0.1228264     -0.08015577
7.22                     0.11312     -0.09497114
7.232                 0.09906714      -0.1045938
7.244                 0.08400527      -0.1075901
7.256                 0.07154129      -0.1045362
7.268                  0.0644249     -0.09786732
7.28                  0.06366835     -0.09113768
7.292                 0.06819633     -0.08791246
7.304                 0.07514916     -0.09063086
7.316                 0.08076011     -0.09980126
7.328                 0.08154282      -0.1137926
7.34                  0.07541754      -0.1293046
7.352                 0.06241457      -0.1423839
7.364                 0.04471741      -0.1496747
7.376                 0.02601495      -0.1495074
7.388                 0.01035359      -0.1424701
7.4                 0.0008474978      -0.1312652
7.412               -0.001338796      -0.1198796
7.424                0.002600996      -0.1123218
7.436                0.009461932      -0.1113251
7.448                 0.01503446      -0.1174391
7.46                   0.0154572      -0.1288122
7.472                0.008481585      -0.1417522
7.484               -0.005765202      -0.1518948
7.496                -0.02477844      -0.1556122
7.508                -0.04444795      -0.1512039
7.52                 -0.06036523      -0.1394788
7.532                -0.06924652      -0.1235272
7.544                -0.07000729      -0.1077472
7.556                -0.06413386     -0.09643408
7.568                -0.05522135     -0.09238745
7.58                 -0.04782066     -0.09599327
7.592                -0.04596492      -0.1050835
7.604                 -0.0518537      -0.1156264
7.616                -0.06512576      -0.1230274
7.628                -0.08296084      -0.1236195
7.64                  -0.1009812       -0.115859
7.652                 -0.1146606      -0.1008347
7.664                 -0.1207859     -0.08192524
7.676                  -0.118492     -0.06371349
7.688                 -0.1095388     -0.05051269
7.7                  -0.09773783      -0.0449819
7.712                -0.08771895     -0.04727946
7.724                 -0.0834381     -0.05502643
7.736                -0.08690989     -0.06408736
7.748                -0.09757261      -0.0699112
7.76                  -0.1124854     -0.06899609
7.772                 -0.1272871     -0.06000559
7.784                 -0.1376016     -0.04418128
7.796                 -0.1404329     -0.02492679
7.808                 -0.1351055    -0.006706925
7.82                  -0.1234539     0.006378584
7.832                 -0.1092116      0.01188618
7.844                -0.09680665     0.009776276
7.856                -0.08995523     0.002388784
7.868                -0.09050237    -0.006332916
7.88                 -0.09787235     -0.01211099
7.892                 -0.1092906     -0.01168478
7.904                 -0.1206921    -0.003819155
7.916                 -0.1280179      0.01034156
7.928                  -0.128484      0.02767017
7.94                  -0.1214276      0.04406429
7.952                 -0.1084767      0.05573694
7.964                 -0.0930036      0.06038256
7.976                -0.07905103      0.05785929
7.988                -0.07007364      0.05018809
8                    -0.06788879      0.04088533
8.012                -0.07215391      0.03385012
8.024                 -0.0805187      0.03215928
8.036                -0.08938827      0.03714097
8.048                 -0.0950499      0.04800336
8.06                 -0.09481053      0.06211785
8.072                -0.08779923      0.07585498
8.084                -0.07519928      0.08570608
8.096                -0.05985269      0.08934487
8.108                -0.04537173      0.08630902
8.12                 -0.03503568      0.07810583
8.132                -0.03080988      0.06772185
8.144                -0.03277911       0.0586971
8.156                -0.03915664      0.05405011
8.168                -0.04685491      0.05537874
8.18                 -0.05243681      0.06240267
8.192                -0.05315638      0.07307632
8.204                -0.04777624      0.08422907
8.216                -0.03692162      0.09253342
8.228                 -0.0228716       0.0955071
8.24                 -0.00885765      0.09224954
8.252                0.001914899      0.08369602
8.264                  0.0072269      0.07231915
8.276                0.006500357      0.06137264
8.288               0.0009550333      0.05390787
8.3                 -0.006775863      0.05185983
8.312                -0.01345141      0.05547584
8.324                -0.01620528      0.06325614
8.336                -0.01340849      0.07242081
8.348               -0.005153353      0.07975957
8.36                 0.006785068      0.08260606
8.372                 0.01949539      0.07964204
8.384                 0.02981718      0.07128921
8.396                 0.03529827      0.05957203
8.408                 0.03493189      0.04749563
8.42                  0.02945095      0.03813012
8.432                 0.02109228      0.03368096
8.444                 0.01290538      0.03482847
8.456                0.007819154      0.04053603
8.468                0.007752652      0.04838248
8.48                    0.013041       0.0553134
8.492                 0.02234937      0.05857861
8.504                 0.03309705      0.05656762
8.516                 0.04225699      0.04928863
8.528                 0.04728222      0.03834818
8.54                  0.04687451      0.02644379
8.552                 0.04136163      0.01653068
8.564                 0.03257391      0.01092243
8.576                 0.02326504      0.01060117
8.588                 0.01626205      0.01494489
8.6                   0.01360864      0.02194736
8.612                 0.01596351      0.02885403
8.624                 0.02243146      0.03301145
8.636                  0.0308689      0.03266685
8.648                 0.03855957      0.02747635
8.66                  0.04304601      0.01857519
8.672                   0.042861     0.008200723
8.684                  0.0379412    -0.001005052
8.696                 0.02960813    -0.006793664
8.708                 0.02013626    -0.007966318
8.72                  0.01205144     -0.00469653
8.732                0.007378215     0.001565027
8.744                0.007061561     0.008559697
8.756                 0.01072715      0.01391089
8.768                 0.01683712      0.01582305
8.78                  0.02317945      0.01358448
8.792                 0.02753392     0.007735928
8.804                 0.02831426   -0.0001292531
8.816                  0.0250025    -0.007859459
8.828                 0.01826069     -0.01337878
8.84                 0.009703073     -0.01527406
8.852                0.001408516      -0.0131715
8.864               -0.004678204    -0.007806902
8.876               -0.007284845   -0.0007838774
8.888                -0.00614373     0.005899584
8.9                 -0.002035255       0.0104165
8.912                0.003457422      0.01161074
8.924                0.008405291     0.009298606
8.936                 0.01107202     0.004298032
8.948                 0.01038765     -0.00181426
8.96                 0.006233111     -0.00714593
8.972              -0.0005361404     -0.01001077
8.984               -0.008329535    -0.009389518
8.996                -0.01525808    -0.005208196
9.008                -0.01965163     0.001639438
9.02                  -0.0205191     0.009532079
9.032                -0.01782781       0.0165617
9.044                -0.01252387      0.02105919
9.056               -0.006282766      0.02206356
9.068               -0.001051704      0.01960476
9.08                 0.001495997      0.01471613
9.092               0.0004448145      0.00916393
9.104               -0.004079449     0.004959838
9.116                 -0.0109153     0.003786609
9.128                -0.01817068     0.006498576
9.14                 -0.02375194      0.01284509
9.152                -0.02597152      0.02150754
9.164                -0.02405871      0.03045283
9.176                -0.01841726      0.03751222
9.188                -0.01054221      0.04102202
9.2                 -0.002606031      0.04033621
9.212                0.003174147      0.03605034
9.224                0.005204681      0.02985725
9.236                0.003016297      0.02406428
9.248               -0.002562001      0.02090747
9.26                -0.009621109      0.02186657
9.272                -0.01572782      0.02719212
9.284                -0.01865738      0.03579755
9.296                -0.01708067      0.04556047
9.308                -0.01099177      0.05395086
9.32                -0.001736135      0.05879917
9.332                0.008378485      0.05896857
9.344                 0.01677611      0.05472005
9.356                 0.02140089      0.04765081
9.368                 0.02135609      0.04021809
9.38                  0.01719229      0.03499047
9.392                 0.01075042      0.03385675
9.404                0.004604406      0.03743776
9.416                0.001272844      0.04488612
9.428                0.002443239      0.05413832
9.44                 0.008449995      0.06254303
9.452                 0.01816777      0.06767187
9.464                 0.02935385      0.06806211
9.476                 0.03933332      0.06366188
9.488                 0.04581435      0.05584225
9.5                   0.04758358      0.04697375
9.512                 0.04486783      0.03970093
9.524                 0.03925566      0.03613823
9.536                 0.03320593      0.03723346
9.548                 0.02929759      0.04249017
9.56                  0.02945079      0.05012861
9.572                 0.03435449      0.05763118
9.584                 0.04326994      0.06250267
9.596                 0.05426298      0.06301488
9.608                 0.06478964      0.05871368
9.62                  0.07245532      0.05054165
9.632                 0.07572033      0.04054657
9.644                 0.07434534      0.03126717
9.656                 0.06944946      0.02498215
9.668                 0.06317012      0.02304309
9.68                  0.05802855      0.02548443
9.692                 0.05618881      0.03102022
9.704                 0.05882492      0.03742462
9.716                 0.06577814       0.0421835
9.728                 0.07560069      0.04322827
9.74                  0.08597281      0.03954121
9.752                 0.09437317      0.03145882
9.764                 0.09881205      0.02058515
9.776                 0.09841698     0.009337154
9.788                 0.09370147    0.0002486446
9.8                   0.08643481    -0.004770432
9.812                 0.07914296    -0.005006441
9.824                 0.07437703    -0.001176524
9.836                 0.07395631     0.004751998
9.848                 0.07840652      0.01011676
9.86                  0.08676547      0.01233894
9.872                 0.09682658     0.009702688
9.884                  0.1057653     0.001902841
9.896                  0.1109754    -0.009813205
9.908                  0.1108725     -0.02297017
9.92                   0.1054168     -0.03457849
9.932                 0.09618334     -0.04203632
9.944                 0.08593497     -0.04395036
9.956                 0.07780614      -0.0406163
9.968                 0.07433449     -0.03399146
9.98                  0.07663666     -0.02714263
9.992                 0.08399718     -0.02331754
10.004                0.09402217     -0.02491665
10.016                 0.1033372     -0.03268978
10.028                 0.1086316     -0.04542734
10.04                  0.1077289     -0.06027074
10.052                 0.1003361     -0.07357118
10.064                0.08821274     -0.08204304
10.076                0.07467549     -0.08384775
10.088                0.06357183     -0.07924841
10.1                   0.0580362     -0.07059927
10.112                0.05943207     -0.06164394
10.124                0.06683885     -0.05632554
10.136                0.07727855     -0.05748444
10.148                0.08663698     -0.06587465
10.16                 0.09099875     -0.07984132
10.172                0.08796386     -0.09579422
10.184                0.07750136      -0.1093481
10.196                0.06203423      -0.1167702
10.208                0.04569895      -0.1162556
10.22                 0.03300098      -0.1085922
10.232                0.02730254     -0.09696732
10.244                0.02965225     -0.08595373
10.256                0.03836668      -0.0799931
10.268                0.04953162     -0.08187974
10.28                 0.05827981     -0.09176359
10.292                0.06043057      -0.1070304
10.304                0.05393931      -0.1231258
10.316                0.03965222      -0.1350683
10.328                0.02108694       -0.139148
10.34                0.003288059      -0.1342317
10.352              -0.008873358       -0.122212
10.364               -0.01238113      -0.1074232
10.376              -0.007155637     -0.09519899
10.388               0.003855532     -0.09004989
10.4                  0.01563359     -0.09408384
10.412                0.02278472      -0.1062234
10.424                0.02140521      -0.1225113
10.436                0.01047005      -0.1374234
10.448              -0.007748405      -0.1457558
10.46                -0.02840034      -0.1444412
10.472               -0.04569147      -0.1336615
10.484               -0.05487997       -0.116851
10.496               -0.05394897     -0.09956662
10.508               -0.04436346     -0.08759424
10.52                -0.03062882     -0.08493513
10.532               -0.01877842     -0.09237433
10.544               -0.01429768      -0.1071419
10.556               -0.02019656      -0.1238087
10.568               -0.03590759      -0.1361279
10.58                -0.05741042      -0.1392001
10.592                -0.0785641      -0.1312103
10.604               -0.09320577      -0.1141239
10.616               -0.09729815     -0.09307683
10.628               -0.09037783     -0.07464893
10.64                -0.07578591     -0.06460048
10.652               -0.05957763     -0.06585095
10.664               -0.04846663     -0.07740848
10.676               -0.04750163     -0.09464025
10.688               -0.05827897      -0.1108135
10.7                 -0.07832183      -0.1193941
10.712                -0.1018614      -0.1163173
10.724                -0.1217741      -0.1014434
10.736                -0.1320202     -0.07867779
10.748                -0.1297506     -0.05469574
10.76                  -0.116345     -0.03668715
10.772               -0.09700838     -0.02988821
10.784                -0.0790422     -0.03574663
10.796               -0.06936774     -0.05136336
10.808               -0.07214296     -0.07041938
10.82                -0.08729342     -0.08529034
10.832                -0.1104735     -0.08963787
10.844                -0.1344886     -0.08059571
10.856                -0.1517092     -0.05979742
10.868                -0.1566631     -0.03288203
10.88                 -0.1479231    -0.007629483
10.892                -0.1286402     0.008652028
10.904                -0.1055291       0.0116061
10.916               -0.08663544     0.001331834
10.928               -0.07863427     -0.01760539
10.94                -0.08456754     -0.03767109
10.952                -0.1027894     -0.05087037
10.964                -0.1274806     -0.05142866
10.976                 -0.150567     -0.03774352
10.988                -0.1644039      -0.0129486
11                    -0.1643281      0.01610262
11.012                -0.1502254       0.0410988
11.024                -0.1265872       0.0550239
11.036                -0.1010373      0.05448586
11.048               -0.08181792      0.04084594
11.06                -0.07507115        0.019776
11.072               -0.08281475     -0.00060746
11.084                -0.1022799     -0.01241147
11.096                -0.1268238     -0.01055519
11.108                -0.1481095     0.005572104
11.12                 -0.1588314      0.03192232
11.132                -0.1550897      0.06112134
11.144                 -0.137643      0.08487701
11.156                -0.1116385      0.09666868
11.168               -0.08492239      0.09384219
11.18                -0.06549367      0.07843731
11.192               -0.05893145      0.05649427
11.204               -0.06662817      0.03608152
11.216               -0.08538438      0.02469523
11.228                -0.1084769       0.0268734
11.24                 -0.1278368      0.04278394
11.252                -0.1366257      0.06822176
11.264                -0.1313837      0.09599242
11.276                -0.1130779       0.1182197
11.288               -0.08673713        0.128831
11.3                 -0.05981798       0.1254345
11.312               -0.03983797       0.1100106
11.324               -0.03203247      0.08822603
11.336               -0.03776603      0.06761226
11.348               -0.05417483      0.05520147
11.36                -0.07512386      0.05536246
11.372               -0.09315351      0.06850147
11.384                -0.1017931      0.09100652
11.396               -0.09752403       0.1164238
11.408               -0.08080093       0.1374758
11.42                -0.05584298       0.1482889
11.432               -0.02928901       0.1461474
11.444                -0.0081491       0.1322575
11.456               0.002312068       0.1113145
11.468              0.0001254349      0.09003164
11.48                -0.01284996      0.07509532
11.492               -0.03154625      0.07116827
11.504               -0.04924827      0.07953265
11.516               -0.05961477      0.09776022
11.528               -0.05855394       0.1204852
11.54                -0.04540405       0.1410309
11.552                -0.0230873       0.1533963
11.564               0.002791114       0.1540164
11.576                0.02561785       0.1427855
11.588                0.03972174       0.1230568
11.6                  0.04202862       0.1006317
11.612                 0.0329443      0.08204436
11.624                0.01621632      0.07264388
11.636              -0.002176818       0.0750339
11.648               -0.01578169       0.0883175
11.66                -0.01956027       0.1083636
11.672               -0.01136629       0.1290154
11.684               0.007420353       0.1438911
11.696                0.03228632       0.1482529
11.708                0.05689414       0.1404051
11.72                 0.07493201       0.1222084
11.732                0.08196803       0.0985573
11.744                0.07676805      0.07596328
11.756                0.06168571      0.06065051
11.768                  0.042001      0.05671691
11.78                 0.02438878      0.06490196
11.792                0.01495743      0.08233184
11.804                0.01743075       0.1033306
11.816                0.03201289       0.1210724
11.828                0.05528352       0.1295976
11.84                 0.08116944       0.1255991
11.852                 0.1027207       0.1094433
11.864                 0.1141731      0.08510903
11.876                 0.1126866      0.05904626
11.888                0.09923203      0.03827841
11.9                  0.07834826      0.02830641
11.912                0.05682579      0.03144081
11.924                0.04169554      0.04606971
11.936                0.03811915      0.06709666
11.948                  0.047815      0.08743284
11.96                  0.0685019       0.1001076
11.972                0.09454153       0.1003684
11.984                    0.1186      0.08713541
11.996                  0.133839      0.06336417
12.008                 0.1359787       0.0351948
12.02                  0.1246091      0.01013245
12.032                 0.1033451    -0.005199772
12.044                0.07876935    -0.007060129
12.056                0.05847229      0.00426636
12.068                0.04877536      0.02452839
12.08                 0.05282263        0.046764
12.092                0.06961868      0.06337918
12.104                0.09430723      0.06842665
12.116                 0.1196119      0.05939897
12.128                 0.1380088      0.03799506