! TOUCHSTONE file generated by CST MICROWAVE STUDIO
! Date and time: Tue Jan  7 13:06:08 2025
! Project name: 2port_Metal_Plate_22x45_TimeSolver_SmallHorn_D_1000_alfa_0_Angle_0.cst
! Parameters = {AA=1.1164; AB_sqInv=0.80193; Angle=0; BB=0.025494; C0=2.097; Cj=0.644347; Cp=0.075; Ct=0.71614; D=1000; ImZ=-22.224; L=290; L0=30; Lp=0.45; M=1.199; R=5.41; ReZ=4.33844; Rt=4.33844; V=5; Vj=2.984; W=180; a=10; alfa=0; b=10; f=0.01; height=0.8; horn_x=90; horn_y=145; horn_z=310; th=0.035}
! Header version: 2018
! Port assignment regex: !\s*Touchstone port\s*([0-9]+)\s*=\s*(CST MWS port|CST DS port)\s*([0-9]+|Zmin|Zmax)\s*\(\"(.*)\"\)(\s*mode\s*([0-9]+))?.*
! Touchstone port assignment:
! Touchstone port 1 = CST MWS port 1 ("")
! S-Parameters are not renormalized. Unphysical impedance of 0 will be written to the file.
# GHz S RI R 0
5                    0.006796442    0.0009612119
5.012                0.006283742    -0.002893492
5.024                0.003692121    -0.005778711
5.036              -6.800259e-05    -0.006691173
5.048               -0.003679386    -0.005316243
5.06                -0.005877266    -0.002137149
5.072               -0.005890119     0.001733754
5.084               -0.003708519      0.00494286
5.096              -8.841673e-05     0.006367219
5.108                0.003712295     0.005506148
5.12                 0.006372248     0.002656095
5.132                0.006967456    -0.001192244
5.144                   0.005294     -0.00469894
5.156                0.001939982    -0.006641963
5.168                -0.00191865    -0.006343803
5.18                -0.004927613    -0.003908793
5.192               -0.006026702   -0.0001881159
5.204               -0.004820578     0.003515848
5.216               -0.001718313     0.005903272
5.228                0.002207428     0.006130856
5.24                 0.005593245     0.004107689
5.252                0.007260493    0.0005293024
5.264                0.006627773    -0.003362779
5.276                 0.00391632    -0.006213021
5.288               7.576976e-05    -0.007025333
5.3                 -0.003544833     -0.00551286
5.312               -0.005667031    -0.002201476
5.324                -0.00553047     0.001750278
5.336               -0.003161515     0.004953308
5.348               0.0006317773     0.006272787
5.36                 0.004538053     0.005226749
5.372                0.007198721     0.002158689
5.384                0.007683346    -0.001877532
5.396                0.005818336    -0.005482057
5.408                0.002253033    -0.007396985
5.42                -0.001761758    -0.006948126
5.432               -0.004807432    -0.004285742
5.444                -0.00579343   -0.0003385191
5.456               -0.004342265     0.003505423
5.468              -0.0009280895       0.0058812
5.48                 0.003281844     0.005925975
5.492                0.006830044     0.003586333
5.504                0.008477272   -0.0003550318
5.516                0.007639645    -0.004545431
5.528                0.004600575     -0.00753091
5.54                0.0004208976    -0.008265585
5.552               -0.003424666    -0.006483616
5.564               -0.005560443    -0.002801916
5.576               -0.005194249     0.001485599
5.588               -0.002403124     0.004853871
5.6                  0.001882278     0.006079491
5.612                0.006193153     0.004674716
5.624                0.009031318     0.001069238
5.636                0.009395596    -0.003527632
5.648                0.007141424    -0.007540633
5.66                 0.003045036    -0.009577101
5.672               -0.001454881    -0.008920025
5.684               -0.004752522    -0.005791653
5.696               -0.005637324    -0.001291402
5.708               -0.003727098     0.002975678
5.72                0.0003824093     0.005454842
5.732                0.005309201     0.005190053
5.744                0.009356875     0.002172123
5.756                 0.01110628    -0.002639584
5.768                0.009921437    -0.007635875
5.78                 0.006190137     -0.01111178
5.792                0.001209178     -0.01186612
5.804               -0.003252992    -0.009636641
5.816               -0.005569711     -0.00521427
5.828               -0.004833597   -0.0001888246
5.84                -0.001194332     0.003592827
5.852                0.004168078     0.004672442
5.864                 0.00943404     0.002505205
5.876                 0.01277088    -0.002324195
5.888                  0.0129806     -0.00827844
5.9                  0.009941328      -0.0133856
5.912                0.004681086     -0.01592543
5.924              -0.0009525701     -0.01504659
5.936               -0.004922555     -0.01109541
5.948               -0.005718679    -0.005531182
5.96                -0.002910532   -0.0004451874
5.972                0.002663672     0.002159799
5.984                0.009151171      0.00108289
5.996                 0.01430705    -0.003620797
6.008                 0.01627813      -0.0106151
6.02                  0.01427714     -0.01771148
6.032                0.008904353     -0.02261702
6.044                0.001989193     -0.02374962
6.056               -0.004011989     -0.02083454
6.068               -0.006867193     -0.01506166
6.08                -0.005378379    -0.008728485
6.092               0.0001395104     -0.00447211
6.104                0.007895827    -0.004343279
6.116                 0.01518983    -0.009043443
6.128                  0.0193308     -0.01760428
6.14                  0.01860455     -0.02764723
6.152                 0.01294523     -0.03616315
6.164                0.004056112     -0.04056522
6.176                -0.00509713     -0.03965705
6.188                -0.01128073     -0.03416621
6.2                   -0.0121533     -0.02662435
6.212               -0.007191452     -0.02059075
6.224                0.001965895     -0.01944754
6.236                 0.01192173     -0.02516204
6.248                 0.01859062     -0.03745396
6.26                  0.01861043     -0.05369823
6.272                 0.01062581     -0.06966525
6.284                -0.00402442     -0.08091749
6.296                 -0.0215212     -0.08443705
6.308                -0.03670476     -0.07993737
6.32                 -0.04485129     -0.07036481
6.332                -0.04355283     -0.06131756
6.344                 -0.0340744     -0.05944132
6.356                -0.02166849     -0.07020382
6.368                -0.01460743     -0.09569436
6.38                 -0.02207698      -0.1331545
6.392                 -0.0514452      -0.1747895
6.404                 -0.1056622      -0.2090718
6.416                 -0.1815763      -0.2233174
6.428                 -0.2697494      -0.2069207
6.44                  -0.3559626      -0.1543961
6.452                 -0.4241348     -0.06736688
6.464                 -0.4599623      0.04510996
6.476                 -0.4543503       0.1680674
6.488                  -0.405726       0.2836814
6.5                   -0.3206005        0.375115
6.512                 -0.2121965       0.4301794
6.524                -0.09748562       0.4438772
6.536                 0.00660949       0.4191938
6.548                 0.08686658       0.3659644
6.56                   0.1363467       0.2981649
6.572                  0.1552978       0.2303815
6.584                  0.1502297       0.1744107
6.596                  0.1315172       0.1368617
6.608                  0.1102642       0.1183235
6.62                  0.09532262       0.1141958
6.632                 0.09126679         0.11682
6.644                 0.09779855       0.1182035
6.656                  0.1106235       0.1125132
6.668                  0.1234101      0.09763773
6.68                    0.130156      0.07544047
6.692                  0.1272139      0.05074189
6.704                  0.1143828      0.02944757
6.716                 0.09479889      0.01647086
6.728                 0.07374486      0.01411934
6.74                  0.05682718      0.02142816
6.752                 0.04814311      0.03459769
6.764                  0.0490277       0.0483345
6.776                 0.05775676      0.05761772
6.788                 0.07025753       0.0592994
6.8                   0.08155341      0.05302714
6.812                 0.08744356      0.04121707
6.824                 0.08586251      0.02812217
6.836                 0.07748815      0.01833218
6.848                 0.06542547      0.01521385
6.86                   0.0540988      0.01980306
6.872                 0.04773838      0.03049798
6.884                 0.04896833       0.0436316
6.896                 0.05795596      0.05471351
6.908                 0.07238802       0.0599181
6.92                  0.08826339      0.05732591
6.932                  0.1012255      0.04751667
6.944                   0.107988      0.03333248
6.956                   0.107385      0.01890372
6.968                   0.100709     0.008269439
6.98                  0.09123824     0.004049832
6.992                 0.08312009      0.00660401
7.004                 0.07998507      0.01394104
7.016                 0.08374844      0.02240262
7.028                 0.09398761      0.02788436
7.04                   0.1080916      0.02719023
7.052                  0.1221247      0.01907713
7.064                  0.1321147     0.004652386
7.076                  0.1353416     -0.01299803
7.088                  0.1312089     -0.02982208
7.1                    0.1214156     -0.04211952
7.112                  0.1093831     -0.04773417
7.124                 0.09912714     -0.04673507
7.136                  0.0939464     -0.04136997
7.148                 0.09535459     -0.03531278
7.16                   0.1025991     -0.03245438
7.172                  0.1129174     -0.03563166
7.184                  0.1224424     -0.04570628
7.196                  0.1274596     -0.06128782
7.208                  0.1256076     -0.07918605
7.22                   0.1166347     -0.09544098
7.232                  0.1024722      -0.1065949
7.244                 0.08660498       -0.110795
7.256                 0.07294642      -0.1083738
7.268                 0.06458351      -0.1017238
7.28                  0.06279514     -0.09451225
7.292                 0.06665668     -0.09049242
7.304                 0.07335371     -0.09229496
7.316                 0.07909899      -0.1005867
7.328                 0.08035509      -0.1138634
7.34                  0.07497011      -0.1289381
7.352                 0.06286339      -0.1419646
7.364                 0.04604656      -0.1496646
7.376                 0.02797752      -0.1503666
7.388                 0.01245808      -0.1445273
7.4                  0.002429457      -0.1345717
7.412              -0.0009501965      -0.1241098
7.424                0.001344263      -0.1167829
7.436                0.006534503      -0.1151076
7.448                 0.01093737      -0.1196865
7.46                  0.01114391      -0.1290301
7.472                 0.00510206       -0.140044
7.484               -0.007237599      -0.1490189
7.496                -0.02391475      -0.1528088
7.508                -0.04158624      -0.1498216
7.52                 -0.05658518      -0.1405115
7.532                -0.06607241       -0.127224
7.544                -0.06891868      -0.1134453
7.556                -0.06604107      -0.1027011
7.568                -0.06009327     -0.09745204
7.58                 -0.05461424     -0.09833479
7.592                -0.05290673      -0.1039817
7.604                -0.05700113      -0.1114716
7.616                -0.06702834      -0.1172622
7.628                -0.08119314       -0.118308
7.64                 -0.09635098      -0.1130117
7.652                 -0.1089996      -0.1017132
7.664                 -0.1163732     -0.08656888
7.676                  -0.117294     -0.07086624
7.688                 -0.1125213     -0.05799347
7.7                   -0.1044929     -0.05038971
7.712                -0.09654882      -0.0488024
7.724                -0.09188356     -0.05207897
7.736                -0.09255685     -0.05755077
7.748                -0.09886864     -0.06188207
7.76                  -0.1092873     -0.06211514
7.772                  -0.120946     -0.05658466
7.784                 -0.1305449     -0.04542078
7.796                 -0.1353764     -0.03049036
7.808                  -0.134153     -0.01480346
7.82                  -0.1273864     -0.00157545
7.832                 -0.1172073      0.00676122
7.844                 -0.1066906     0.009289945
7.856                -0.09889928     0.006866641
7.868                -0.09594747     0.001828573
7.88                 -0.09836844    -0.002746513
7.892                 -0.1049768      -0.0039967
7.904                 -0.1132591   -0.0001506061
7.916                 -0.1201641     0.008945028
7.928                 -0.1230448      0.02180089
7.94                  -0.1204615       0.0357622
7.952                 -0.1126039       0.0478329
7.964                 -0.1012099      0.05559032
7.976                -0.08901571      0.05790943
7.988                -0.07891174      0.05528094
8                    -0.07306763      0.04963388
8.012                -0.07229065      0.04372558
8.024                -0.07580862      0.04029265
8.036                -0.08153366      0.04122384
8.048                -0.08671848      0.04700455
8.06                 -0.08879889      0.05659509
8.072                -0.08616493      0.06777045
8.084                -0.07863049      0.07781012
8.096                -0.06746593      0.08432339
8.108                -0.05499317      0.08595965
8.12                 -0.04387412      0.08279303
8.132                -0.03631167      0.07627352
8.144                -0.03340368      0.06876825
8.156                -0.03484011      0.06283868
8.168                -0.03902525      0.06047504
8.18                 -0.04357992      0.06251663
8.192                -0.04606571      0.06842609
8.204                -0.04471171      0.07647675
8.216                -0.03892784      0.08428842
8.228                -0.02945868      0.08954503
8.24                 -0.01813924       0.0906784
8.252               -0.007335179      0.08731706
8.264               0.0007620906       0.0803735
8.276                0.004773784      0.07175225
8.288                0.004520414      0.06377329
8.3                  0.001049081      0.05848584
8.312               -0.003698475      0.05707609
8.324               -0.007472139      0.05953919
8.336               -0.008377043      0.06470562
8.348               -0.005420168        0.070606
8.36                 0.001216541      0.07506101
8.372                 0.01024979      0.07632037
8.384                 0.01968621      0.07356467
8.396                 0.02741158      0.06712817
8.408                  0.0318036       0.0583839
8.42                  0.03219126      0.04933141
8.432                 0.02903185      0.04201174
8.444                 0.02376026      0.03792101
8.456                 0.01836038      0.03759094
8.468                 0.01478641      0.04045317
8.48                  0.01440247      0.04502093
8.492                 0.01760001      0.04933054
8.504                 0.02369931       0.0515123
8.516                 0.03115803      0.05032632
8.528                 0.03802317      0.04551105
8.54                  0.04249389      0.03784864
8.552                 0.04343429      0.02893237
8.564                 0.04069114      0.02070615
8.576                 0.03512923      0.01490925
8.588                 0.02837725      0.01258458
8.6                   0.02235942      0.01378898
8.612                 0.01874701      0.01758539
8.624                 0.01848567       0.0223168
8.636                 0.02153127       0.0260826
8.648                  0.0268678      0.02728137
8.66                  0.03280053      0.02506661
8.672                 0.03744078      0.01958703
8.684                 0.03924466      0.01194416
8.696                 0.03745347     0.003879843
8.708                 0.03231152    -0.002717969
8.72                  0.02499962    -0.006351381
8.732                 0.01730258    -0.006339141
8.744                 0.01110431    -0.003012595
8.756                0.007852746       0.0023753
8.768                0.008146327     0.008003458
8.78                  0.01155985       0.0119998
8.792                 0.01676093      0.01297623
8.804                 0.02188598      0.01042953
8.816                   0.025071     0.004892827
8.828                 0.02498729    -0.002207759
8.84                  0.02122933    -0.008953459
8.852                 0.01444229      -0.0134786
8.864                0.006149746     -0.01450736
8.876               -0.001672808     -0.01172767
8.888               -0.007159723    -0.005892897
8.9                 -0.009092692     0.001381604
8.912               -0.007259159     0.008072983
8.924               -0.002525692      0.01232922
8.936                 0.00339914      0.01300652
8.948                0.008448821      0.01000992
8.96                  0.01079397     0.004335498
8.972                0.009378032    -0.002202977
8.984                0.004237347    -0.007489068
8.996               -0.003491036    -0.009715065
9.008                -0.01188146    -0.007913869
9.02                 -0.01876658    -0.002255167
9.032                -0.02236409     0.005984441
9.044                -0.02180193      0.01477467
9.056                -0.01738697      0.02191073
9.068                -0.01053388      0.02565375
9.08                -0.003368906      0.02524585
9.092                0.001881658      0.02114728
9.104                0.003542943      0.01492064
9.116               0.0009927668     0.008789862
9.128               -0.005137285     0.004997286
9.14                 -0.01312546     0.005143906
9.152                -0.02064682     0.009706485
9.164                -0.02544628      0.01787676
9.176                -0.02600293      0.02777597
9.188                -0.02198983       0.0369884
9.2                  -0.01439015       0.0432623
9.212               -0.005229033       0.0451747
9.224                0.003006308      0.04256301
9.236                0.008092807      0.03659216
9.248                0.008731905      0.02943075
9.26                 0.004947839       0.0236253
9.272                -0.00189846      0.02135244
9.284               -0.009490517      0.02376792
9.296                -0.01522652      0.03064715
9.308                -0.01698489      0.04042816
9.32                 -0.01376004      0.05065128
9.332               -0.005978097      0.05867159
9.344                0.004606504      0.06243756
9.356                 0.01540964      0.06110604
9.368                 0.02376906      0.05530873
9.38                  0.02773131      0.04698555
9.392                  0.0266396      0.03882777
9.404                 0.02134626      0.03348995
9.416                 0.01398047      0.03280136
9.428                0.007333771      0.03721072
9.44                 0.004040369      0.04563266
9.452                0.005792125       0.0557473
9.464                 0.01282231      0.06467053
9.476                 0.02381516      0.06980108
9.488                 0.03627393      0.06959522
9.5                   0.04724447      0.06403814
9.512                 0.05418404      0.05466775
9.524                 0.05571978      0.04413765
9.536                 0.05206909      0.03544346
9.548                 0.04499344       0.0310377
9.56                  0.03729289      0.03209495
9.572                 0.03198608      0.03814734
9.584                 0.03141505      0.04720366
9.596                 0.03654036      0.05632215
9.608                 0.04663806      0.06247264
9.62                  0.05949322      0.06343515
9.632                 0.07203881      0.05846815
9.644                 0.08125456      0.04854569
9.656                 0.08506226      0.03608783
9.668                 0.08295109      0.02425853
9.68                  0.07614459      0.01603538
9.692                  0.0672543       0.0133246
9.704                 0.05951781      0.01638492
9.716                 0.05584292      0.02373458
9.728                 0.05794012      0.03257414
9.74                  0.06580163      0.03960481
9.752                 0.07768531       0.0420031
9.764                 0.09061329      0.03826413
9.776                   0.101242      0.02866168
9.788                  0.1068494      0.01518502
9.8                    0.1061464    0.0009661089
9.812                 0.09967147     -0.01063739
9.824                 0.08964621     -0.01703429
9.836                 0.07933065     -0.01717352
9.848                 0.07206503     -0.01186773
9.86                  0.07027946    -0.003567042
9.872                 0.07476526     0.004354779
9.884                 0.08442595     0.008593879
9.896                 0.09658607     0.006897398
9.908                  0.1077703    -0.001259024
9.92                   0.1147263     -0.01450055
9.932                  0.1153888     -0.02994384
9.944                  0.1095004     -0.04403768
9.956                 0.09870108     -0.05360775
9.968                 0.08605637      -0.0567975
9.98                  0.07516033     -0.05362575
9.992                 0.06907563      -0.0459929
10.004                0.06942324     -0.03713023
10.016                  0.075893     -0.03065143
10.028                0.08632213     -0.02948449
10.04                 0.09732275     -0.03499935
10.052                 0.1052759     -0.04659078
10.064                 0.1074004     -0.06184277
10.076                 0.1025809     -0.07722965
10.088                0.09170882     -0.08914951
10.1                  0.07743121     -0.09498674
10.112                 0.0633806      -0.0938893
10.124                0.05310803     -0.08702943
10.136                0.04903461     -0.07726791
10.148                0.05173071     -0.06831738
10.16                 0.05973793     -0.06364968
10.172                0.06998937     -0.06546813
10.184                0.07870685     -0.07404901
10.196                0.08251319     -0.08764839
10.208                0.07943168      -0.1030047
10.22                 0.06947768      -0.1162919
10.232                0.05466529      -0.1242437
10.244                0.03842484      -0.1251185
10.256                0.02459979      -0.1192191
10.268                0.01631717      -0.1088128
10.28                 0.01506417     -0.09747113
10.292                0.02024366      -0.0890234
10.304                0.02934191     -0.08642888
10.316                0.03866164     -0.09090082
10.328                0.04440672      -0.1015409
10.34                 0.04380067      -0.1155938
10.352                0.03590951      -0.1292497
10.364                 0.0219258      -0.1387602
10.376               0.004828034      -0.1415407
10.388               -0.01148634      -0.1369351
10.4                 -0.02334193      -0.1264159
10.412               -0.02836483      -0.1131595
10.424               -0.02618398      -0.1011194
10.436                -0.0185463     -0.09386709
10.448              -0.008809851     -0.09354184
10.46              -0.0009623524      -0.1002169
10.472               0.001549017      -0.1118708
10.484              -0.003167305       -0.124973
10.496               -0.01488509      -0.1355148
10.508                -0.0313177      -0.1401842
10.52                -0.04878043      -0.1373397
10.532               -0.06326453      -0.1274982
10.544               -0.07161006      -0.1131905
10.556               -0.07243354      -0.0982275
10.568               -0.06653786     -0.08658767
10.58                -0.05668299     -0.08125302
10.592               -0.04678279      -0.0833329
10.604               -0.04076147     -0.09173367
10.616               -0.04140372      -0.1034724
10.628               -0.04953478      -0.1145442
10.64                -0.06377131      -0.1210919
10.652               -0.08091803      -0.1205352
10.664               -0.09689492      -0.1123301
10.676                -0.1079262      -0.0981361
10.688                -0.1116441     -0.08133834
10.7                  -0.1077843     -0.06606533
10.712               -0.09826887     -0.05598605
10.724               -0.08665116     -0.05323767
10.736                -0.0770827     -0.05779746
10.748               -0.07310204     -0.06748326
10.76                -0.07659909     -0.07858437
10.772               -0.08725723     -0.08694024
10.784                -0.1026373     -0.08915413
10.796                -0.1188811     -0.08358762
10.808                -0.1318312     -0.07084584
10.82                 -0.1382412      -0.0536101
10.832                -0.1367248     -0.03586499
10.844                -0.1281665     -0.02174297
10.856                -0.1154714     -0.01432187
10.868                -0.1027263     -0.01472555
10.88                -0.09401312     -0.02179008
10.892               -0.09221995      -0.0323952
10.904               -0.09819474     -0.04236628
10.916                  -0.11049     -0.04768672
10.928                -0.1257744     -0.04566924
10.94                 -0.1397942     -0.03574476
10.952                -0.1486069     -0.01963867
10.964                  -0.14973   -0.0008800342
10.976                -0.1428694      0.01621564
10.988                -0.1300155      0.02779676
11                    -0.1148746      0.03159705
11.012                -0.1017997       0.0276008
11.024               -0.09452789      0.01805736
11.036               -0.09509087      0.00683729
11.048                -0.1032155    -0.001685939
11.06                 -0.1163915    -0.003905969
11.072                -0.1305893     0.001962788
11.084                -0.1414235      0.01535465
11.096                -0.1454259      0.03350304
11.108                 -0.141059      0.05223035
11.12                 -0.1291752      0.06715311
11.132                -0.1127835      0.07495316
11.144                -0.0961888       0.0743479
11.156               -0.08374965      0.06647437
11.168               -0.07861234      0.05457334
11.18                -0.08178926      0.04306013
11.192               -0.09185117      0.03624818
11.204                -0.1053266      0.03709368
11.216                -0.1176974      0.04632598
11.228                -0.1247055      0.06221889
11.24                 -0.1235933      0.08107388
11.252                -0.1139169      0.09827986
11.264                -0.0976936       0.1096459
11.276               -0.07883471       0.1126222
11.288               -0.06202405       0.1070534
11.3                 -0.05136289      0.09524168
11.312                -0.0491737      0.08129621
11.324               -0.05531084      0.06995217
11.336               -0.06718387      0.06519783
11.348               -0.08049141      0.06910736
11.36                -0.09045926      0.08122057
11.372               -0.09322641      0.09865426
11.384               -0.08697788       0.1169197
11.396               -0.07249218       0.1312142
11.408               -0.05293917       0.1378162
11.42                -0.03298002        0.135178
11.432               -0.01742476       0.1243963
11.444              -0.009833865       0.1089172
11.456               -0.01147041      0.09355406
11.468               -0.02091134      0.08309816
11.48                -0.03443725      0.08092189
11.492               -0.04709529      0.08798195
11.504               -0.05413186       0.1025164
11.516               -0.05238184       0.1205315
11.528               -0.04120855       0.1369433
11.54                -0.02271638       0.1470502
11.552              -0.001166005       0.1479078
11.564                0.01824556       0.1392064
11.576                 0.0308907       0.1233892
11.588                0.03406682       0.1049672
11.6                  0.02780461      0.08922482
11.612                 0.0148868      0.08068478
11.624              6.353583e-05      0.08177923
11.636               -0.01131528      0.09211715
11.648               -0.01485798       0.1085685
11.66               -0.008426057       0.1261497
11.672                0.00721504       0.1394604
11.684                0.02858689        0.144259
11.696                0.05048439       0.1387152
11.708                0.06747843       0.1239734
11.72                  0.0755004       0.1038508
11.732                0.07304698      0.08375084
11.744                0.06164767      0.06909996
11.756                0.04544998      0.06376003
11.768                 0.0300334      0.06888071
11.78                  0.0207906      0.08253311
11.792                0.02134488       0.1002409
11.804                 0.0324679       0.1162637
11.816                0.05182065       0.1252658
11.828                0.07460279        0.123885
11.84                 0.09493139       0.1117415
11.852                 0.1075524      0.09158385
11.864                  0.109388      0.06851936
11.876                 0.1004629      0.04854362
11.888                0.08393165      0.03679299
11.9                  0.06518812      0.03602881
11.912                0.05030735       0.0458013
11.924                0.04426973      0.06254613
11.936                0.04948627      0.08059652
11.948                0.06506118      0.09382417
11.96                 0.08701707      0.09743449
11.972                 0.1094278      0.08939086
11.984                 0.1261367      0.07104497
11.996                 0.1325624      0.04677898
12.008                 0.1270619      0.02275333
12.02                  0.1114466     0.005117437
12.032                 0.0904879    -0.001796453
12.044                0.07054807     0.003234154
12.056                0.05772727      0.01792904
12.068                0.05606708      0.03713784
12.08                 0.06633911      0.05432377
12.092                0.08578172      0.06347183
12.104                 0.1088732      0.06086498
12.116                 0.1289258      0.04620409
12.128                 0.1400404       0.0227348