! TOUCHSTONE file generated by CST MICROWAVE STUDIO
! Date and time: Tue Jan  7 13:04:06 2025
! Project name: 2port_noDUT_22x45_TimeSolver_SmallHorn_D_1000_alfa_0_Angle_0.cst
! Parameters = {Angle=0; alfa=0; D=1000; AA=1.1164; AB_sqInv=0.80193; BB=0.025494; C0=2.097; Cj=0.644347; Cp=0.075; Ct=0.71614; ImZ=-22.224; L=290; L0=30; Lp=0.45; M=1.199; R=5.41; ReZ=4.33844; Rt=4.33844; V=5; Vj=2.984; W=180; a=10; b=10; f=0.01; height=0.8; horn_x=90; horn_y=145; horn_z=310; th=0.035}
! Header version: 2018
! Port assignment regex: !\s*Touchstone port\s*([0-9]+)\s*=\s*(CST MWS port|CST DS port)\s*([0-9]+|Zmin|Zmax)\s*\(\"(.*)\"\)(\s*mode\s*([0-9]+))?.*
! Touchstone port assignment:
! Touchstone port 1 = CST MWS port 1 ("")
! S-Parameters are not renormalized. Unphysical impedance of 0 will be written to the file.
# GHz S RI R 0
5                    0.004938747     -0.02477938
5.012                0.003038776     -0.02502383
5.024                0.001129174     -0.02512299
5.036              -0.0007791824      -0.0250767
5.048               -0.002675454     -0.02488557
5.06                -0.004548865     -0.02455103
5.072                -0.00638881     -0.02407527
5.084               -0.008184847     -0.02346127
5.096               -0.009926797     -0.02271273
5.108                -0.01160478      -0.0218341
5.12                 -0.01320926     -0.02083055
5.132                -0.01473113      -0.0197079
5.144                -0.01616172     -0.01847263
5.156                -0.01749283     -0.01713185
5.168                -0.01871683     -0.01569322
5.18                 -0.01982665     -0.01416496
5.192                -0.02081584     -0.01255578
5.204                -0.02167858     -0.01087482
5.216                -0.02240974    -0.009131653
5.228                 -0.0230049    -0.007336183
5.24                 -0.02346035    -0.005498634
5.252                -0.02377313     -0.00362947
5.264                -0.02394104     -0.00173936
5.276                -0.02396266    0.0001608824
5.288                -0.02383736     0.002060381
5.3                  -0.02356527     0.003948185
5.312                -0.02314734     0.005813397
5.324                -0.02258529     0.007645173
5.336                -0.02188161     0.009432836
5.348                -0.02103956      0.01116587
5.36                 -0.02006318        0.012834
5.372                 -0.0189572      0.01442726
5.384                -0.01772709      0.01593601
5.396                -0.01637901      0.01735102
5.408                -0.01491977       0.0186635
5.42                 -0.01335682      0.01986513
5.432                -0.01169816      0.02094814
5.444               -0.009952408      0.02190532
5.456                -0.00812865      0.02273007
5.468               -0.006236466      0.02341644
5.48                -0.004285851      0.02395914
5.492               -0.002287189      0.02435361
5.504              -0.0002512014        0.024596
5.516                0.001811143      0.02468321
5.528                0.003888604      0.02461294
5.54                 0.005969807      0.02438364
5.552                0.008043234       0.0239946
5.564                 0.01009729      0.02344587
5.576                 0.01212042      0.02273836
5.588                 0.01410106      0.02187373
5.6                   0.01602778      0.02085452
5.612                  0.0178893      0.01968402
5.624                 0.01967454      0.01836632
5.636                  0.0213727      0.01690629
5.648                  0.0229733      0.01530956
5.66                   0.0244662      0.01358249
5.672                 0.02584173      0.01173215
5.684                 0.02709065      0.00976629
5.696                 0.02820423     0.007693325
5.708                 0.02917433      0.00552227
5.72                  0.02999337     0.003262723
5.732                 0.03065445    0.0009248215
5.744                 0.03115132    -0.001480801
5.756                 0.03147843    -0.003943064
5.768                   0.031631    -0.006450479
5.78                  0.03160499     -0.00899121
5.792                 0.03139715     -0.01155311
5.804                 0.03100507      -0.0141238
5.816                 0.03042712     -0.01669069
5.828                 0.02966258     -0.01924101
5.84                   0.0287115       -0.021762
5.852                 0.02757485     -0.02424079
5.864                 0.02625443     -0.02666456
5.876                 0.02475291     -0.02902058
5.888                 0.02307379     -0.03129628
5.9                   0.02122147     -0.03347924
5.912                  0.0192011     -0.03555734
5.924                 0.01701877      -0.0375187
5.936                 0.01468121      -0.0393519
5.948                 0.01219607     -0.04104585
5.96                 0.009571655     -0.04258997
5.972                0.006817007     -0.04397418
5.984                0.003941889     -0.04518894
5.996                0.000956666     -0.04622537
6.008                -0.00212766     -0.04707517
6.02                -0.005299507     -0.04773078
6.032               -0.008546791     -0.04818535
6.044                -0.01185694     -0.04843278
6.056                -0.01521697     -0.04846776
6.068                -0.01861347     -0.04828584
6.08                 -0.02203277     -0.04788335
6.092                -0.02546083     -0.04725754
6.104                -0.02888349     -0.04640652
6.116                -0.03228638     -0.04532931
6.128                -0.03565501     -0.04402582
6.14                 -0.03897491     -0.04249691
6.152                -0.04223151     -0.04074433
6.164                -0.04541042     -0.03877078
6.176                -0.04849732     -0.03657985
6.188                -0.05147808     -0.03417607
6.2                  -0.05433882     -0.03156483
6.212                -0.05706597     -0.02875246
6.224                -0.05964629      -0.0257461
6.236                -0.06206698     -0.02255378
6.248                -0.06431567     -0.01918431
6.26                 -0.06638055      -0.0156473
6.272                -0.06825033     -0.01195316
6.284                -0.06991436    -0.008113008
6.296                -0.07136264     -0.00413856
6.308                -0.07258587     -4.2341e-05
6.32                 -0.07357551     0.004162663
6.332                -0.07432376      0.00846284
6.344                -0.07482368       0.0128441
6.356                -0.07506912      0.01729185
6.368                -0.07505488      0.02179112
6.38                 -0.07477657      0.02632659
6.392                 -0.0742308      0.03088266
6.404                -0.07341506      0.03544343
6.416                -0.07232787      0.03999285
6.428                -0.07096864      0.04451474
6.44                 -0.06933781      0.04899287
6.452                -0.06743674      0.05341099
6.464                -0.06526784      0.05775288
6.476                -0.06283446      0.06200249
6.488                 -0.0601409      0.06614389
6.5                  -0.05719243      0.07016136
6.512                -0.05399533      0.07403955
6.524                -0.05055669      0.07776342
6.536                -0.04688464      0.08131826
6.548                -0.04298806      0.08468992
6.56                 -0.03887679       0.0878647
6.572                -0.03456142      0.09082949
6.584                -0.03005341      0.09357177
6.596                -0.02536486      0.09607967
6.608                -0.02050874      0.09834204
6.62                 -0.01549843       0.1003485
6.632                -0.01034831       0.1020894
6.644               -0.005072969       0.1035559
6.656               0.0003122191       0.1047401
6.668                0.005791487        0.105635
6.68                  0.01134865       0.1062343
6.692                 0.01696728       0.1065328
6.704                 0.02263034       0.1065264
6.716                  0.0283208       0.1062117
6.728                 0.03402128       0.1055864
6.74                  0.03971433       0.1046493
6.752                 0.04538238          0.1034
6.764                 0.05100793       0.1018394
6.776                 0.05657335      0.09996921
6.788                 0.06206124      0.09779215
6.8                   0.06745433      0.09531201
6.812                 0.07273553      0.09253354
6.824                 0.07788808      0.08946248
6.836                 0.08289551      0.08610556
6.848                 0.08774173      0.08247041
6.86                  0.09241111      0.07856557
6.872                 0.09688853      0.07440051
6.884                  0.1011594      0.06998553
6.896                  0.1052096      0.06533176
6.908                  0.1090259      0.06045115
6.92                   0.1125957      0.05535633
6.932                  0.1159068      0.05006073
6.944                  0.1189482      0.04457838
6.956                  0.1217095      0.03892396
6.968                  0.1241811      0.03311272
6.98                   0.1263545      0.02716042
6.992                  0.1282217      0.02108332
7.004                  0.1297759      0.01489806
7.016                  0.1310114     0.008621676
7.028                  0.1319231     0.002271502
7.04                   0.1325071    -0.004134875
7.052                  0.1327604     -0.01057967
7.064                  0.1326811     -0.01704497
7.076                  0.1322682     -0.02351276
7.088                  0.1315218     -0.02996502
7.1                    0.1304429     -0.03638376
7.112                  0.1290336      -0.0427511
7.124                  0.1272971     -0.04904928
7.136                  0.1252372     -0.05526077
7.148                  0.1228591     -0.06136828
7.16                   0.1201687     -0.06735487
7.172                  0.1171729     -0.07320394
7.184                  0.1138795     -0.07889932
7.196                  0.1102972     -0.08442534
7.208                  0.1064354     -0.08976679
7.22                   0.1023047     -0.09490909
7.232                 0.09791596     -0.09983824
7.244                 0.09328119      -0.1045409
7.256                 0.08841294      -0.1090044
7.268                  0.0833244      -0.1132169
7.28                  0.07802947      -0.1171672
7.292                 0.07254258      -0.1208449
7.304                 0.06687862      -0.1242406
7.316                 0.06105309      -0.1273455
7.328                 0.05508177       -0.130152
7.34                  0.04898096       -0.132653
7.352                 0.04276716      -0.1348426
7.364                 0.03645717      -0.1367158
7.376                 0.03006808      -0.1382685
7.388                 0.02361701      -0.1394976
7.4                   0.01712135      -0.1404008
7.412                 0.01059837      -0.1409768
7.424                 0.00406548      -0.1412256
7.436                -0.00246007      -0.1411476
7.448               -0.008961009      -0.1407446
7.46                 -0.01542042      -0.1400191
7.472                -0.02182142      -0.1389745
7.484                 -0.0281475      -0.1376152
7.496                -0.03438235      -0.1359466
7.508                -0.04051017      -0.1339746
7.52                 -0.04651546      -0.1317064
7.532                -0.05238321      -0.1291497
7.544                -0.05809894       -0.126313
7.556                -0.06364856      -0.1232056
7.568                -0.06901882      -0.1198376
7.58                 -0.07419682      -0.1162198
7.592                -0.07917046      -0.1123633
7.604                -0.08392829      -0.1082803
7.616                -0.08845954      -0.1039832
7.628                -0.09275428       -0.099485
7.64                 -0.09680319     -0.09479932
7.652                 -0.1005978     -0.08994007
7.664                 -0.1041306     -0.08492152
7.676                 -0.1073946     -0.07975841
7.688                 -0.1103839     -0.07446561
7.7                   -0.1130934     -0.06905836
7.712                 -0.1155188       -0.063552
7.724                 -0.1176566     -0.05796206
7.736                 -0.1195044     -0.05230418
7.748                 -0.1210604     -0.04659399
7.76                  -0.1223238     -0.04084716
7.772                 -0.1232946     -0.03507924
7.784                 -0.1239738     -0.02930578
7.796                  -0.124363     -0.02354209
7.808                 -0.1244648     -0.01780337
7.82                  -0.1242826     -0.01210449
7.832                 -0.1238205    -0.006460152
7.844                 -0.1230834    -0.000884613
7.856                  -0.122077     0.004608169
7.868                 -0.1208077      0.01000464
7.88                  -0.1192825      0.01529161
7.892                 -0.1175092      0.02045662
7.904                 -0.1154962      0.02548738
7.916                 -0.1132525      0.03037246
7.928                 -0.1107875      0.03510073
7.94                  -0.1081114      0.03966187
7.952                 -0.1052348      0.04404608
7.964                 -0.1021687      0.04824419
7.976                -0.09892453      0.05224778
7.988                -0.09551412      0.05604907
8                     -0.0919496      0.05964099
8.012                -0.08824351      0.06301715
8.024                 -0.0844085      0.06617199
8.036                -0.08045749      0.06910059
8.048                -0.07640354      0.07179883
8.06                 -0.07225994      0.07426328
8.072                -0.06803993      0.07649133
8.084                -0.06375688      0.07848109
8.096                -0.05942407      0.08023139
8.108                -0.05505482      0.08174182
8.12                 -0.05066235      0.08301273
8.132                -0.04625975      0.08404514
8.144                -0.04185988      0.08484083
8.156                -0.03747556      0.08540222
8.168                -0.03311915      0.08573246
8.18                 -0.02880295      0.08583535
8.192                -0.02453883      0.08571527
8.204                -0.02033833      0.08537731
8.216                -0.01621266      0.08482712
8.228                -0.01217257      0.08407088
8.24                -0.008228419      0.08311535
8.252               -0.004390115       0.0819678
8.264              -0.0006670378      0.08063599
8.276                0.002931918      0.07912811
8.288                0.006398359      0.07745279
8.3                  0.009724488      0.07561903
8.312                 0.01290302      0.07363623
8.324                 0.01592729      0.07151406
8.336                 0.01879122      0.06926252
8.348                 0.02148932      0.06689182
8.36                  0.02401671      0.06441242
8.372                 0.02636915      0.06183494
8.384                 0.02854303      0.05917016
8.396                 0.03053532      0.05642895
8.408                 0.03234368      0.05362229
8.42                  0.03396638      0.05076116
8.432                 0.03540229      0.04785656
8.444                 0.03665091      0.04491944
8.456                 0.03771237      0.04196071
8.468                  0.0385874      0.03899117
8.48                   0.0392773      0.03602148
8.492                 0.03978397      0.03306215
8.504                  0.0401099      0.03012349
8.516                 0.04025809      0.02721559
8.528                  0.0402321      0.02434826
8.54                  0.04003602      0.02153108
8.552                 0.03967439      0.01877327
8.564                 0.03915228      0.01608377
8.576                 0.03847519      0.01347111
8.588                 0.03764905       0.0109435
8.6                   0.03668019     0.008508711
8.612                 0.03557534     0.006174109
8.624                 0.03434157     0.003946631
8.636                 0.03298629     0.001832758
8.648                 0.03151721   -0.0001614886
8.66                   0.0299423    -0.002030568
8.672                 0.02826978    -0.003769428
8.684                 0.02650809     -0.00537351
8.696                 0.02466587    -0.006838764
8.708                 0.02275188    -0.008161649
8.72                  0.02077505    -0.009339143
8.732                 0.01874438     -0.01036874
8.744                 0.01666895     -0.01124844
8.756                 0.01455789      -0.0119768
8.768                 0.01242032     -0.01255285
8.78                  0.01026537     -0.01297615
8.792                 0.00810211     -0.01324678
8.804                0.005939543     -0.01336531
8.816                0.003786567     -0.01333279
8.828                0.001651969     -0.01315078
8.84               -0.0004556092      -0.0128213
8.852               -0.002527719     -0.01234684
8.864               -0.004556093     -0.01173032
8.876               -0.006532684      -0.0109751
8.888               -0.008449687     -0.01008497
8.9                  -0.01029957    -0.009064113
8.912                -0.01207505    -0.007917101
8.924                -0.01376918    -0.006648869
8.936                 -0.0153753    -0.005264695
8.948                -0.01688711    -0.003770188
8.96                 -0.01829863     -0.00217127
8.972                -0.01960425   -0.0004741471
8.984                -0.02079874     0.001314728
8.996                -0.02187725     0.003188631
9.008                -0.02283531     0.005140637
9.02                 -0.02366887      0.00716362
9.032                -0.02437427      0.00925028
9.044                -0.02494829      0.01139316
9.056                -0.02538811      0.01358469
9.068                -0.02569133      0.01581717
9.08                 -0.02585599      0.01808283
9.092                -0.02588054      0.02037387
9.104                -0.02576387      0.02268239
9.116                -0.02550527      0.02500053
9.128                -0.02510448      0.02732044
9.14                 -0.02456164      0.02963423
9.152                 -0.0238773      0.03193416
9.164                -0.02305242      0.03421248
9.176                -0.02208834       0.0364616
9.188                -0.02098684      0.03867399
9.2                  -0.01975004      0.04084226
9.212                -0.01838042      0.04295921
9.224                -0.01688085      0.04501776
9.236                -0.01525455      0.04701103
9.248                -0.01350507      0.04893235
9.26                 -0.01163627      0.05077527
9.272               -0.009652322      0.05253355
9.284               -0.007557733      0.05420122
9.296               -0.005357229      0.05577254
9.308               -0.003055879      0.05724207
9.32               -0.0006589015      0.05860462
9.332                 0.00182816      0.05985532
9.344                0.004399598       0.0609896
9.356                0.007049453      0.06200315
9.368                0.009771641      0.06289204
9.38                  0.01255987      0.06365263
9.392                 0.01540774      0.06428161
9.404                 0.01830866      0.06477601
9.416                 0.02125596      0.06513318
9.428                 0.02424289      0.06535085
9.44                  0.02726256      0.06542704
9.452                 0.03030811      0.06536011
9.464                 0.03337252      0.06514885
9.476                 0.03644886      0.06479228
9.488                 0.03953006      0.06428985
9.5                   0.04260918      0.06364125
9.512                 0.04567923      0.06284662
9.524                 0.04873326      0.06190633
9.536                 0.05176437      0.06082116
9.548                 0.05476576      0.05959214
9.56                  0.05773065      0.05822069
9.572                 0.06065244      0.05670844
9.584                 0.06352457      0.05505743
9.596                 0.06634061      0.05326993
9.608                 0.06909427      0.05134854
9.62                  0.07177944      0.04929608
9.632                 0.07439014      0.04711564
9.644                 0.07692056      0.04481066
9.656                 0.07936508      0.04238475
9.668                 0.08171824      0.03984179
9.68                  0.08397482      0.03718586
9.692                 0.08612976       0.0344213
9.704                 0.08817828      0.03155262
9.716                 0.09011576      0.02858455
9.728                 0.09193785        0.025522
9.74                  0.09364042      0.02237004
9.752                 0.09521958      0.01913392
9.764                 0.09667172      0.01581902
9.776                 0.09799344      0.01243088
9.788                 0.09918161     0.008975135
9.8                    0.1002334     0.005457555
9.812                  0.1011461     0.001884005
9.824                  0.1019175    -0.001739563
9.836                  0.1025454     -0.00540712
9.848                  0.1030281    -0.009112573
9.86                   0.1033641     -0.01284978
9.872                  0.1035519     -0.01661254
9.884                  0.1035908     -0.02039466
9.896                  0.1034798     -0.02418989
9.908                  0.1032186     -0.02799199
9.92                    0.102807     -0.03179473
9.932                  0.1022449     -0.03559191
9.944                  0.1015328     -0.03937731
9.956                  0.1006712     -0.04314478
9.968                 0.09966087     -0.04688824
9.98                  0.09850298     -0.05060161
9.992                 0.09719883     -0.05427893
10.004                0.09574996     -0.05791428
10.016                0.09415822     -0.06150184
10.028                 0.0924256      -0.0650359
10.04                 0.09055437     -0.06851085
10.052                0.08854704     -0.07192115
10.064                0.08640625     -0.07526144
10.076                0.08413494     -0.07852645
10.088                0.08173624     -0.08171108
10.1                  0.07921338     -0.08481032
10.112                0.07656993     -0.08781935
10.124                0.07380948      -0.0907335
10.136                0.07093593     -0.09354826
10.148                0.06795328     -0.09625929
10.16                 0.06486569     -0.09886242
10.172                 0.0616775      -0.1013537
10.184                0.05839314      -0.1037292
10.196                0.05501727      -0.1059854
10.208                0.05155458      -0.1081189
10.22                 0.04800992      -0.1101264
10.232                0.04438828       -0.112005
10.244                0.04069471      -0.1137517
10.256                0.03693439       -0.115364
10.268                0.03311253      -0.1168395
10.28                 0.02923446       -0.118176
10.292                0.02530561      -0.1193715
10.304                0.02133141      -0.1204242
10.316                0.01731739      -0.1213326
10.328                0.01326909      -0.1220955
10.34                0.009192089      -0.1227115
10.352               0.005091991        -0.12318
10.364              0.0009744833      -0.1235002
10.376              -0.003154802      -0.1236717
10.388              -0.007290293      -0.1236942
10.4                 -0.01142625      -0.1235678
10.412               -0.01555713      -0.1232926
10.424               -0.01967729      -0.1228691
10.436               -0.02378117      -0.1222979
10.448               -0.02786323      -0.1215799
10.46                -0.03191806      -0.1207162
10.472               -0.03594011       -0.119708
10.484               -0.03992413      -0.1185568
10.496               -0.04386481      -0.1172642
10.508               -0.04775691      -0.1158323
10.52                -0.05159531       -0.114263
10.532               -0.05537506      -0.1125585
10.544               -0.05909113      -0.1107215
10.556               -0.06273872      -0.1087545
10.568               -0.06631318      -0.1066603
10.58                -0.06980988      -0.1044419
10.592               -0.07322434      -0.1021026
10.604               -0.07655235     -0.09964548
10.616               -0.07978964     -0.09707418
10.628               -0.08293223     -0.09439228
10.64                 -0.0859762     -0.09160357
10.652               -0.08891782     -0.08871196
10.664               -0.09175357     -0.08572149
10.676               -0.09448005     -0.08263634
10.688               -0.09709399     -0.07946081
10.7                 -0.09959239     -0.07619928
10.712                -0.1019724     -0.07285626
10.724                -0.1042312     -0.06943636
10.736                -0.1063665     -0.06594425
10.748                -0.1083758     -0.06238473
10.76                 -0.1102571     -0.05876261
10.772                -0.1120085     -0.05508281
10.784                -0.1136282     -0.05135033
10.796                -0.1151147     -0.04757016
10.808                -0.1164667     -0.04374734
10.82                  -0.117683     -0.03988703
10.832                -0.1187628     -0.03599424
10.844                -0.1197053     -0.03207419
10.856                  -0.12051     -0.02813195
10.868                -0.1211766      -0.0241727
10.88                  -0.121705     -0.02020159
10.892                -0.1220952     -0.01622367
10.904                -0.1223476      -0.0122441
10.916                -0.1224625    -0.008267862
10.928                -0.1224408    -0.004300012
10.94                 -0.1222833   -0.0003455016
10.952                 -0.121991     0.003590738
10.964                -0.1215652     0.007503933
10.976                -0.1210073      0.01138925
10.988                -0.1203189      0.01524204
11                    -0.1195018      0.01905766
11.012                 -0.118558      0.02283162
11.024                -0.1174895      0.02655947
11.036                -0.1162987      0.03023697
11.048                -0.1149879      0.03385992
11.06                 -0.1135598      0.03742423
11.072                -0.1120171      0.04092591
11.084                -0.1103626      0.04436122
11.096                -0.1085994      0.04772645
11.108                -0.1067306      0.05101803
11.12                 -0.1047593      0.05423257
11.132                -0.1026891      0.05736687
11.144                -0.1005232      0.06041775
11.156               -0.09826531      0.06338233
11.168               -0.09591901       0.0662578
11.18                 -0.0934881      0.06904152
11.192               -0.09097631      0.07173105
11.204               -0.08838753      0.07432409
11.216               -0.08572567      0.07681855
11.228               -0.08299473      0.07921239
11.24                -0.08019877      0.08150388
11.252               -0.07734175      0.08369143
11.264               -0.07442789      0.08577351
11.276               -0.07146119      0.08774889
11.288               -0.06844588      0.08961646
11.3                   -0.065386      0.09137528
11.312               -0.06228575      0.09302454
11.324               -0.05914922      0.09456368
11.336               -0.05598058      0.09599223
11.348               -0.05278384      0.09730989
11.36                -0.04956309      0.09851658
11.372               -0.04632239       0.0996123
11.384               -0.04306572       0.1005972
11.396               -0.03979699       0.1014717
11.408               -0.03652012       0.1022362
11.42                -0.03323888       0.1028913
11.432               -0.02995712       0.1034379
11.444               -0.02667847       0.1038767
11.456               -0.02340657       0.1042088
11.468               -0.02014495       0.1044354
11.48                -0.01689711       0.1045576
11.492               -0.01366638        0.104577
11.504               -0.01045605       0.1044948
11.516              -0.007269341       0.1043128
11.528                -0.0041093       0.1040326
11.54              -0.0009789651        0.103656
11.552               0.002118793       0.1031847
11.564               0.005181178       0.1026209
11.576                0.00820554       0.1019663
11.588                0.01118924       0.1012232
11.6                  0.01412985       0.1003937
11.612                0.01702501       0.0994799
11.624                0.01987245      0.09848411
11.636                0.02267002      0.09740862
11.648                 0.0254157      0.09625576
11.66                 0.02810753      0.09502788
11.672                0.03074374      0.09372739
11.684                 0.0333226      0.09235673
11.696                0.03584247      0.09091831
11.708                0.03830186       0.0894146
11.72                  0.0406994      0.08784805
11.732                0.04303373      0.08622118
11.744                0.04530366      0.08453644
11.756                0.04750812      0.08279631
11.768                0.04964604      0.08100324
11.78                 0.05171652      0.07915972
11.792                0.05371872      0.07726821
11.804                0.05565188      0.07533111
11.816                0.05751532      0.07335086
11.828                0.05930844      0.07132986
11.84                 0.06103075      0.06927048
11.852                0.06268178      0.06717507
11.864                0.06426116      0.06504597
11.876                0.06576857      0.06288545
11.888                0.06720379      0.06069581
11.9                  0.06856659      0.05847927
11.912                0.06985688      0.05623806
11.924                0.07107457      0.05397435
11.936                0.07221963      0.05169027
11.948                0.07329208      0.04938796
11.96                 0.07429197       0.0470695
11.972                0.07521943      0.04473695
11.984                0.07607463      0.04239232
11.996                0.07685771      0.04003761
12.008                0.07756893      0.03767479
12.02                 0.07820853       0.0353058
12.032                0.07877679      0.03293255
12.044                0.07927404      0.03055693
12.056                0.07970062      0.02818079
12.068                0.08005691      0.02580599
12.08                  0.0803433      0.02343433
12.092                0.08056021      0.02106762
12.104                 0.0807081      0.01870763
12.116                0.08078745      0.01635614
12.128                0.08079874      0.01401488