! TOUCHSTONE file generated by CST MICROWAVE STUDIO
! Date and time: Mon Jan 20 16:13:12 2025
! Project name: unitcell.cst
! Parameters = {A=1.03591; AB_sqInv=0.931309; B=0.025494; C0=2.097; Cj=2.0886; Cp=0.075; Ct=2.12774; ImZ=-7.48; L=10; L1=0.3; Lp=0.35; Lpad=0.75; M=1.199; R=5.41; ReZ=5.03838; Rt=5.03838; V=0.01; Vj=2.984; W=10; W1=-0.15; W2=-0.15; Wcoop=3.29; Wgap=1; Wline=1.42; Wpad=0.475; Wpadgap=0.35; Xpad1=1.6225; Xpad2=0.7975; Xpad3=1.6225; Xpad4=0.7975; Xvar_centre=1.21; f=0.01; f0=11; fmax=11.25; fmin=10.75; h=0.8; phi=0; th=0.035; theta=0}
! Header version: 2024
! Port assignment regex: !\s*Touchstone port\s*([0-9]+)\s*=\s*(CST MWS port|CST DES external port|CST DES block port)\s*(.+)\s* \(\"(.*)\"\)(\s*mode\s*([0-9]+))?.*
! Touchstone port assignment:
! Touchstone port 1 = CST MWS port Zmax ("") mode 1
! S-Parameters are not renormalized. Unphysical impedance of 0 will be written to the file.
# GHz S RI R 0
6                     0.22019954     0.962584615
6.011                0.223618579     0.961786582
6.022                0.227036562      0.96097577
6.033                 0.23045345     0.960152164
6.044                0.233869204     0.959315752
6.055                0.237283784     0.958466522
6.066                0.240697151     0.957604459
6.077                0.244109267     0.956729553
6.088                0.247520091     0.955841788
6.099                0.250929585     0.954941154
6.11                 0.254337709     0.954027636
6.121                0.257744423     0.953101222
6.132                 0.26114969     0.952161899
6.143                0.264553468     0.951209654
6.154                0.267955718     0.950244473
6.165                0.271356402     0.949266345
6.176                 0.27475548     0.948275255
6.187                0.278152911      0.94727119
6.198                0.281548657     0.946254138
6.209                0.284942678     0.945224085
6.22                 0.288334935     0.944181018
6.231                0.291725387     0.943124923
6.242                0.295113995     0.942055788
6.253                0.298500719     0.940973598
6.264                 0.30188552     0.939878341
6.275                0.305268358     0.938770003
6.286                0.308649192     0.937648571
6.297                0.312027984      0.93651403
6.308                0.315404693     0.935366367
6.319                 0.31877928     0.934205568
6.33                 0.322151704      0.93303162
6.341                0.325521925     0.931844509
6.352                0.328889904     0.930644221
6.363                  0.3322556     0.929430741
6.374                0.335618973     0.928204056
6.385                0.338979984     0.926964151
6.396                0.342338592     0.925711012
6.407                0.345694756     0.924444625
6.418                0.349048437     0.923164975
6.429                0.352399594     0.921872048
6.44                 0.355748187     0.920565829
6.451                0.359094176     0.919246303
6.462                0.362437519     0.917913456
6.473                0.365778177     0.916567273
6.484                 0.36911611     0.915207738
6.495                0.372451276     0.913834836
6.506                0.375783634     0.912448552
6.517                0.379113146     0.911048871
6.528                0.382439768     0.909635777
6.539                0.385763462     0.908209254
6.55                 0.389084185     0.906769287
6.561                0.392401898      0.90531586
6.572                0.395716558     0.903848956
6.583                0.399028126     0.902368559
6.594                 0.40233656     0.900874654
6.605                0.405641819     0.899367223
6.616                0.408943862      0.89784625
6.627                0.412242648     0.896311718
6.638                0.415538135      0.89476361
6.649                0.418830282     0.893201909
6.66                 0.422119047     0.891626597
6.671                 0.42540439     0.890037657
6.682                0.428686268     0.888435072
6.693                0.431964641     0.886818824
6.704                0.435239465     0.885188894
6.715                  0.4385107     0.883545264
6.726                0.441778303     0.881887916
6.737                0.445042233     0.880216832
6.748                0.448302448     0.878531992
6.759                0.451558905     0.876833377
6.77                 0.454811562     0.875120968
6.781                0.458060378     0.873394746
6.792                0.461305309     0.871654691
6.803                0.464546314     0.869900782
6.814                0.467783349     0.868133001
6.825                0.471016372     0.866351326
6.836                0.474245341     0.864555736
6.847                0.477470212     0.862746211
6.858                0.480690942      0.86092273
6.869                0.483907489     0.859085271
6.88                  0.48711981     0.857233813
6.891                 0.49032786     0.855368332
6.902                0.493531597     0.853488809
6.913                0.496730977     0.851595218
6.924                0.499925957     0.849687539
6.935                0.503116493     0.847765747
6.946                 0.50630254     0.845829819
6.957                0.509484056     0.843879732
6.968                0.512660995     0.841915461
6.979                0.515833314     0.839936983
6.99                 0.519000968     0.837944271
7.001                0.522163913     0.835937302
7.012                0.525322103     0.833916049
7.023                0.528475495     0.831880487
7.034                0.531624042      0.82983059
7.045                0.534767701     0.827766332
7.056                0.537906425     0.825687685
7.067                0.541040169     0.823594622
7.078                0.544168888     0.821487115
7.089                0.547292535     0.819365137
7.1                  0.550411065      0.81722866
7.111                0.553524431     0.815077653
7.122                0.556632588     0.812912088
7.133                0.559735488     0.810731936
7.144                0.562833085     0.808537165
7.155                0.565925332     0.806327746
7.166                0.569012181     0.804103647
7.177                0.572093586     0.801864837
7.188                0.575169498     0.799611284
7.199                 0.57823987     0.797342955
7.21                 0.581304654     0.795059818
7.221                0.584363802     0.792761839
7.232                0.587417265     0.790448983
7.243                0.590464994     0.788121217
7.254                 0.59350694     0.785778505
7.265                0.596543054     0.783420811
7.276                0.599573287     0.781048101
7.287                0.602597588     0.778660336
7.298                0.605615908      0.77625748
7.309                0.608628196     0.773839494
7.32                 0.611634402     0.771406341
7.331                0.614634474     0.768957981
7.342                0.617628362     0.766494374
7.353                0.620616013      0.76401548
7.364                0.623597376     0.761521259
7.375                0.626572399     0.759011668
7.386                0.629541029     0.756486665
7.397                0.632503213     0.753946207
7.408                0.635458897      0.75139025
7.419                0.638408029     0.748818751
7.43                 0.641350554     0.746231664
7.441                0.644286418     0.743628943
7.452                0.647215565     0.741010541
7.463                0.650137942     0.738376411
7.474                0.653053491     0.735726505
7.485                0.655962158     0.733060775
7.496                0.658863885     0.730379169
7.507                0.661758615     0.727681638
7.518                0.664646292      0.72496813
7.529                0.667526858     0.722238593
7.54                 0.670400253     0.719492974
7.551                 0.67326642     0.716731219
7.562                0.676125298     0.713953272
7.573                0.678976829     0.711159078
7.584                0.681820951      0.70834858
7.595                0.684657603      0.70552172
7.606                0.687486725      0.70267844
7.617                0.690308254     0.699818679
7.628                0.693122128     0.696942377
7.639                0.695928282     0.694049472
7.65                 0.698726654     0.691139902
7.661                0.701517178     0.688213601
7.672                 0.70429979     0.685270506
7.683                0.707074423     0.682310549
7.694                0.709841011     0.679333665
7.705                0.712599487     0.676339783
7.716                0.715349783     0.673328835
7.727                 0.71809183     0.670300749
7.738                0.720825558     0.667255454
7.749                0.723550898     0.664192876
7.76                 0.726267777     0.661112941
7.771                0.728976125     0.658015572
7.782                0.731675868     0.654900692
7.793                0.734366933     0.651768223
7.804                0.737049245     0.648618085
7.815                0.739722729     0.645450196
7.826                0.742387308     0.642264473
7.837                0.745042906     0.639060832
7.848                0.747689443     0.635839188
7.859                 0.75032684     0.632599452
7.87                 0.752955016     0.629341536
7.881                0.755573892      0.62606535
7.892                0.758183382     0.622770801
7.903                0.760783405     0.619457796
7.914                0.763373875     0.616126239
7.925                0.765954706     0.612776033
7.936                 0.76852581     0.609407079
7.947                0.771087099     0.606019277
7.958                0.773638483     0.602612525
7.969                0.776179871     0.599186717
7.98                  0.77871117     0.595741748
7.991                0.781232286     0.592277509
8.002                0.783743124     0.588793891
8.013                0.786243586     0.585290781
8.024                0.788733575     0.581768065
8.035                 0.79121299     0.578225627
8.046                0.793681729     0.574663349
8.057                0.796139689     0.571081111
8.068                0.798586766     0.567478788
8.079                0.801022852     0.563856258
8.09                 0.803447838     0.560213391
8.101                0.805861614     0.556550059
8.112                0.808264069     0.552866129
8.123                0.810655087     0.549161468
8.134                0.813034551     0.545435938
8.145                0.815402345     0.541689399
8.156                0.817758346      0.53792171
8.167                0.820102433     0.534132726
8.178                 0.82243448     0.530322299
8.189                 0.82475436      0.52649028
8.2                  0.827061943     0.522636514
8.211                0.829357097     0.518760847
8.222                0.831639687     0.514863119
8.233                0.833909575     0.510943169
8.244                0.836166622     0.507000832
8.255                0.838410685     0.503035939
8.266                0.840641617      0.49904832
8.277                0.842859271       0.4950378
8.288                0.845063495     0.491004202
8.299                0.847254133     0.486947345
8.31                 0.849431028     0.482867043
8.321                0.851594019     0.478763109
8.332                 0.85374294     0.474635351
8.343                0.855877624     0.470483574
8.354                0.857997899     0.466307578
8.365                0.860103589     0.462107161
8.376                0.862194514     0.457882117
8.387                0.864270492     0.453632233
8.398                0.866331334     0.449357296
8.409                0.868376849     0.445057086
8.42                 0.870406842      0.44073138
8.431                 0.87242111      0.43637995
8.442                0.874419451     0.432002565
8.453                0.876401652     0.427598987
8.464                  0.8783675     0.423168976
8.475                0.880316775     0.418712286
8.486                0.882249251     0.414228666
8.497                0.884164698     0.409717861
8.508                0.886062879     0.405179609
8.519                0.887943554     0.400613645
8.53                 0.889806473     0.396019699
8.541                0.891651384     0.391397494
8.552                0.893478025     0.386746748
8.563                0.895286131     0.382067175
8.574                0.897075426      0.37735848
8.585                0.898845631     0.372620366
8.596                0.900596458     0.367852528
8.607                0.902327611     0.363054654
8.618                0.904038787     0.358226429
8.629                0.905729676     0.353367529
8.64                 0.907399958     0.348477625
8.651                0.909049306      0.34355638
8.662                0.910677382     0.338603452
8.673                0.912283842     0.333618491
8.684                 0.91386833      0.32860114
8.695                0.915430481     0.323551036
8.706                 0.91696992     0.318467807
8.717                0.918486263     0.313351076
8.728                0.919979113     0.308200457
8.739                0.921448062     0.303015555
8.75                 0.922892692     0.297795969
8.761                0.924312572     0.292541291
8.772                0.925707259     0.287251101
8.783                0.927076296     0.281924974
8.794                0.928419214     0.276562476
8.805                 0.92973553     0.271163163
8.816                0.931024747     0.265726583
8.827                0.932286351     0.260252275
8.838                0.933519816      0.25473977
8.849                0.934724598     0.249188586
8.86                 0.935900136     0.243598236
8.871                0.937045855     0.237968221
8.882                0.938161158     0.232298031
8.893                0.939245433     0.226587149
8.904                0.940298047     0.220835045
8.915                0.941318348      0.21504118
8.926                0.942305663     0.209205004
8.937                0.943259299     0.203325956
8.948                0.944178539     0.197403466
8.959                0.945062644     0.191436951
8.97                 0.945910851     0.185425816
8.981                0.946722372     0.179369456
8.992                0.947496394     0.173267256
9.003                0.948232075     0.167118585
9.014                0.948928549     0.160922804
9.025                0.949584918      0.15467926
9.036                0.950200255     0.148387289
9.047                0.950773601     0.142046214
9.058                0.951303966     0.135655345
9.069                0.951790325     0.129213981
9.08                 0.952231619     0.122721407
9.091                 0.95262675     0.116176895
9.102                0.952974586     0.109579706
9.113                0.953273951     0.102929087
9.124                0.953523631    0.0962242727
9.135                0.953722367    0.0894644832
9.146                0.953868858    0.0826489275
9.157                0.953961753    0.0757768011
9.168                0.953999656    0.0688472867
9.179                0.953981118    0.0618595541
9.19                 0.953904638    0.0548127608
9.201                0.953768662    0.0477060515
9.212                0.953571576    0.0405385589
9.223                0.953311708    0.0333094034
9.234                0.952987325     0.026017694
9.245                0.952596627    0.0186625279
9.256                0.952137749    0.0112429918
9.267                0.951608753   0.00375816139
9.278                 0.95100763   -0.0037928973
9.289                0.950332293   -0.0114111277
9.3                  0.949580575   -0.0190974819
9.311                0.948750227   -0.0268529199
9.322                0.947838911   -0.0346784086
9.333                  0.9468442   -0.0425749208
9.344                 0.94576357   -0.0505434341
9.355                0.944594402   -0.0585849299
9.366                0.943333968   -0.0667003916
9.377                0.941979437   -0.0748908029
9.388                0.940527862   -0.0831571468
9.399                0.938976181   -0.0915004029
9.41                 0.937321207   -0.0999215457
9.421                0.935559624    -0.108421542
9.432                0.933687985    -0.117001348
9.443                  0.9317027    -0.125661908
9.454                0.929600032    -0.134404149
9.465                0.927376095    -0.143228978
9.476                0.925026839     -0.15213728
9.487                 0.92254805    -0.161129911
9.498                0.919935337    -0.170207694
9.509                0.917184131    -0.179371416
9.52                 0.914289668    -0.188621821
9.531                 0.91124699    -0.197959602
9.542                0.908050928      -0.2073854
9.553                  0.9046961    -0.216899789
9.564                0.901176895    -0.226503275
9.575                0.897487469    -0.236196283
9.586                0.893621731    -0.245979149
9.597                0.889573333    -0.255852111
9.608                 0.88533566    -0.265815294
9.619                0.880901821    -0.275868701
9.63                 0.876264633      -0.2860122
9.641                 0.87141661    -0.296245506
9.652                0.866349953    -0.306568167
9.663                0.861056538    -0.316979547
9.674                0.855527899    -0.327478807
9.685                 0.84975522    -0.338064883
9.696                0.843729319    -0.348736465
9.707                0.837440634    -0.359491972
9.718                0.830879214    -0.370329526
9.729                0.824034702    -0.381246923
9.74                 0.816896324    -0.392241601
9.751                0.809452874    -0.403310606
9.762                0.801692705    -0.414450559
9.773                0.793603717    -0.425657612
9.784                0.785173343    -0.436927404
9.795                0.776388544    -0.448255019
9.806                0.767235797    -0.459634934
9.817                0.757701088    -0.471060962
9.828                0.747769913    -0.482526196
9.839                0.737427266    -0.494022946
9.85                  0.72665765    -0.505542669
9.861                0.715445071    -0.517075899
9.872                0.703773052    -0.528612165
9.883                0.691624645    -0.540139911
9.894                0.678982442    -0.551646404
9.905                0.665828608     -0.56311764
9.916                0.652144907    -0.574538242
9.927                0.637912737    -0.585891352
9.938                0.623113188    -0.597158519
9.949                 0.60772709    -0.608319575
9.96                 0.591735093    -0.619352517
9.971                0.575117744    -0.630233369
9.982                0.557855592    -0.640936048
9.993                0.539929298    -0.651432226
10.004               0.521319778    -0.661691184
10.015               0.502008351    -0.671679667
10.026               0.481976925    -0.681361737
10.037               0.461208197     -0.69069863
10.048               0.439685888    -0.699648611
10.059                  0.417395    -0.708166845
10.07                0.394322118    -0.716205268
10.081                0.37045573    -0.723712477
10.092               0.345786596     -0.73063364
10.103               0.320308147    -0.736910427
10.114               0.294016929    -0.742480974
10.125               0.266913075    -0.747279881
10.136               0.239000831     -0.75123826
10.147               0.210289101    -0.754283829
10.158               0.180792046     -0.75634108
10.169               0.150529693    -0.757331508
10.18                0.119528583    -0.757173929
10.191              0.0878224264    -0.755784893
10.202              0.0554527648    -0.753079196
10.213              0.0224696262    -0.748970508
10.224             -0.0110678464    -0.743372122
10.235             -0.0450908085    -0.736197832
10.246             -0.0795201938    -0.727362945
10.257              -0.114266282    -0.716785425
10.268              -0.149228387    -0.704387173
10.279              -0.184294684    -0.690095427
10.29                -0.21934222    -0.673844275
10.301              -0.254237123    -0.655576256
10.312              -0.288835052    -0.635244029
10.323              -0.322981897    -0.612812068
10.334              -0.356514771    -0.588258344
10.345              -0.389263283    -0.561575951
10.356              -0.421051125     -0.53277461
10.367               -0.45169794    -0.501882007
10.378              -0.481021478    -0.468944892
10.389              -0.508839987    -0.434029889
10.4                -0.534974823    -0.397223952
10.411              -0.559253182    -0.358634431
10.422              -0.581510929    -0.318388697
10.433              -0.601595407    -0.276633306
10.444              -0.619368161    -0.233532708
10.455              -0.634707477    -0.189267488
10.466              -0.647510663     -0.14403219
10.477              -0.657695968   -0.0980327666
10.488               -0.66520409   -0.0514837186
10.499              -0.669999207  -0.00460501134
10.51               -0.672069498    0.0423811427
10.521               -0.67142714    0.0892535355
10.532              -0.668107778     0.135795151
10.543              -0.662169508     0.181796192
10.554              -0.653691402     0.227056863
10.565              -0.642771659     0.271389836
10.576              -0.629525426     0.314622337
10.587              -0.614082397     0.356597828
10.598              -0.596584257     0.397177244
10.609              -0.577182065     0.436239805
10.62               -0.556033642     0.473683401
10.631              -0.533301046     0.509424578
10.642              -0.509148191     0.543398181
10.653              -0.483738643     0.575556676
10.664              -0.457233654     0.605869225
10.675              -0.429790435      0.63432055
10.686              -0.401560691     0.660909652
10.697              -0.372689419     0.685648427
10.708              -0.343313958     0.708560234
10.719              -0.313563281     0.729678437
10.73               -0.283557513     0.749044984
10.741              -0.253407645     0.766709023
10.752              -0.223215429     0.782725593
10.763              -0.193073423     0.797154408
10.774              -0.163065165     0.810058731
10.785              -0.133265448     0.821504358
10.796               -0.10374068     0.831558713
10.807             -0.0745493003     0.840290047
10.818             -0.0457422483      0.84776674
10.829             -0.0173634516     0.854056704
10.84               0.0105496658     0.859226884
10.851              0.0379656733     0.863342836
10.862               0.064858628      0.86646839
10.873              0.0912075818      0.86866538
10.884               0.116996107     0.869993437
10.895               0.142211841     0.870509839
10.9                 0.153481704     0.870491171
10.906               0.166846064     0.870269404
10.917               0.190893289     0.869324428
10.928               0.214350897     0.867724656
10.939               0.237218788     0.865517283
10.95                0.259499062     0.862746977
10.961               0.281195731     0.859455925
10.972               0.302314455      0.85568389
10.983               0.322862301     0.851468285
10.994               0.342847529     0.846844255
11.005               0.362279395     0.841844764
11.016               0.381167981     0.836500688
11.027               0.399524039      0.83084091
11.038               0.417358854     0.824892419
11.049               0.434684122     0.818680406
11.06                0.451511844     0.812228358
11.071               0.467854233     0.805558156
11.082               0.483723631     0.798690166
11.093               0.499132438     0.791643327
11.104               0.514093052     0.784435239
11.115               0.528617815     0.777082244
11.126               0.542718968     0.769599504
11.137               0.556408614     0.762001082
11.148               0.569698684     0.754300006
11.159               0.582600912     0.746508341
11.17                0.595126812     0.738637253
11.181                0.60728766      0.73069707
11.192               0.619094481     0.722697335
11.203               0.630558035     0.714646865
11.214               0.641688815     0.706553796
11.225               0.652497035     0.698425635
11.236               0.662992629     0.690269302
11.247               0.673185249     0.682091168
11.258               0.683084267       0.6738971
11.269               0.692698771     0.665692494
11.28                0.702037572     0.657482305
11.291               0.711109207     0.649271085
11.302               0.719921937     0.641063008
11.313               0.728483762     0.632861899
11.324               0.736802416     0.624671257
11.335               0.744885379     0.616494281
11.346                0.75273988     0.608333893
11.357               0.760372906     0.600192753
11.368               0.767791205     0.592073286
11.379               0.775001296     0.583977692
11.39                0.782009471     0.575907966
11.401               0.788821808     0.567865916
11.412               0.795444172      0.55985317
11.423               0.801882225     0.551871195
11.434               0.808141433     0.543921309
11.445               0.814227067     0.536004688
11.456               0.820144217     0.528122382
11.467               0.825897793     0.520275321
11.478               0.831492534     0.512464324
11.489               0.836933013      0.50469011
11.5                 0.842223641     0.496953305
11.511               0.847368676     0.489254447
11.522               0.852372227     0.481593996
11.533               0.857238259     0.473972338
11.544               0.861970599     0.466389791
11.555               0.866572939     0.458846612
11.566               0.871048846     0.451342999
11.577                0.87540176       0.4438791
11.588               0.879635004     0.436455013
11.599               0.883751786     0.429070792
11.61                0.887755202      0.42172645
11.621               0.891648244     0.414421965
11.632               0.895433801     0.407157279
11.643               0.899114662     0.399932303
11.654               0.902693524      0.39274692
11.665               0.906172991     0.385600989
11.676               0.909555578     0.378494342
11.687               0.912843718     0.371426794
11.698               0.916039761     0.364398137
11.709               0.919145979     0.357408149
11.72                0.922164568     0.350456589
11.731               0.925097654     0.343543205
11.742               0.927947289      0.33666773
11.753               0.930715461     0.329829887
11.764                0.93340409     0.323029391
11.775               0.936015038     0.316265944
11.786               0.938550102     0.309539244
11.797               0.941011024     0.302848981
11.808                0.94339949     0.296194839
11.819               0.945717131     0.289576498
11.83                0.947965528     0.282993632
11.841               0.950146209     0.276445915
11.852               0.952260657     0.269933016
11.863               0.954310307     0.263454602
11.874               0.956296551     0.257010338
11.885               0.958220735     0.250599891
11.896               0.960084165     0.244222924
11.907               0.961888109     0.237879101
11.918               0.963633792     0.231568088
11.929               0.965322405     0.225289549
11.94                0.966955103     0.219043152
11.951               0.968533003     0.212828565
11.962               0.970057193     0.206645456
11.973               0.971528726     0.200493498
11.984               0.972948625     0.194372364
11.995                0.97431788      0.18828173
12.006               0.975637457     0.182221275
12.017               0.976908289      0.17619068
12.028               0.978131285     0.170189629
12.039               0.979307326     0.164217809
12.05                 0.98043727     0.158274912
12.061               0.981521948     0.152360629
12.072               0.982562169     0.146474659
12.083               0.983558718     0.140616701
12.094               0.984512359      0.13478646
12.105               0.985423834     0.128983643
12.116               0.986293865      0.12320796
12.127               0.987123154     0.117459128
12.138               0.987912383     0.111736864
12.149               0.988662215      0.10604089
12.16                0.989373297     0.100370933
12.171               0.990046257    0.0947267221
12.182               0.990681706     0.089107991
12.193                0.99128024    0.0835144771
12.204               0.991842438    0.0779459215
12.215               0.992368863    0.0724020693
12.226               0.992860064    0.0668826692
12.237               0.993316578    0.0613874738
12.248               0.993738923    0.0559162393
12.259               0.994127609    0.0504687259
12.27                0.994483129    0.0450446974
12.281               0.994805965    0.0396439212
12.292               0.995096586    0.0342661687
12.303               0.995355451    0.0289112145
12.314               0.995583004    0.0235788374
12.325               0.995779683    0.0182688192
12.336               0.995945909    0.0129809456
12.347               0.996082098   0.00771500583
12.358               0.996188653   0.00247079252
12.369               0.996265968  -0.00275189822
12.38                0.996314426  -0.00795326687
12.391               0.996334403   -0.0131335105
12.402               0.996326265   -0.0182928229
12.413               0.996290368   -0.0234313945
12.424               0.996227063   -0.0285494125
12.435               0.996136688   -0.0336470608
12.446               0.996019577   -0.0387245203
12.457               0.995876055   -0.0437819686
12.468               0.995706439   -0.0488195803
12.479               0.995511038   -0.0538375268
12.49                0.995290157   -0.0588359768
12.501                0.99504409   -0.0638150956