! TOUCHSTONE file generated by CST MICROWAVE STUDIO
! Date and time: Mon Jan 20 16:13:07 2025
! Project name: unitcell.cst
! Parameters = {A=1.05058; AB_sqInv=0.905498; B=0.025494; C0=2.097; Cj=1.48286; Cp=0.075; Ct=1.53994; ImZ=-10.3351; L=10; L1=0.3; Lp=0.35; Lpad=0.75; M=1.199; R=5.41; ReZ=4.89875; Rt=4.89875; V=1; Vj=2.984; W=10; W1=-0.15; W2=-0.15; Wcoop=3.29; Wgap=1; Wline=1.42; Wpad=0.475; Wpadgap=0.35; Xpad1=1.6225; Xpad2=0.7975; Xpad3=1.6225; Xpad4=0.7975; Xvar_centre=1.21; f=0.01; f0=11; fmax=11.25; fmin=10.75; h=0.8; phi=0; th=0.035; theta=0}
! Header version: 2024
! Port assignment regex: !\s*Touchstone port\s*([0-9]+)\s*=\s*(CST MWS port|CST DES external port|CST DES block port)\s*(.+)\s* \(\"(.*)\"\)(\s*mode\s*([0-9]+))?.*
! Touchstone port assignment:
! Touchstone port 1 = CST MWS port Zmax ("") mode 1
! S-Parameters are not renormalized. Unphysical impedance of 0 will be written to the file.
# GHz S RI R 0
6                     0.20746717     0.963573557
6.011                0.210904246     0.962827316
6.022                0.214340311     0.962068199
6.033                0.217775325     0.961296196
6.044                0.221209248     0.960511293
6.055                 0.22464204      0.95971348
6.066                0.228073661     0.958902745
6.077                 0.23150407     0.958079077
6.088                0.234933228     0.957242464
6.099                0.238361094     0.956392894
6.11                 0.241787628     0.955530356
6.121                0.245212789     0.954654838
6.132                0.248636537     0.953766329
6.143                0.252058833     0.952864818
6.154                0.255479636     0.951950291
6.165                0.258898904     0.951022739
6.176                0.262316599     0.950082149
6.187                 0.26573268      0.94912851
6.198                0.269147106      0.94816181
6.209                0.272559837     0.947182037
6.22                 0.275970832      0.94618918
6.231                0.279380051     0.945183227
6.242                0.282787454     0.944164166
6.253                   0.286193     0.943131985
6.264                0.289596648     0.942086673
6.275                0.292998359     0.941028217
6.286                0.296398091     0.939956605
6.297                0.299795804     0.938871827
6.308                0.303191457     0.937773869
6.319                 0.30658501     0.936662719
6.33                 0.309976422     0.935538366
6.341                0.313365653     0.934400798
6.352                0.316752661     0.933250001
6.363                0.320137406     0.932085965
6.374                0.323519847     0.930908675
6.385                0.326899944     0.929718121
6.396                0.330277655     0.928514289
6.407                 0.33365294     0.927297168
6.418                0.337025759     0.926066744
6.429                0.340396069     0.924823004
6.44                  0.34376383     0.923565937
6.451                0.347129002     0.922295529
6.462                0.350491543     0.921011767
6.473                0.353851412     0.919714638
6.484                0.357208568     0.918404129
6.495                0.360562971     0.917080227
6.506                0.363914578     0.915742919
6.517                 0.36726335     0.914392191
6.528                0.370609244     0.913028029
6.539                0.373952219      0.91165042
6.55                 0.377292235     0.910259351
6.561                0.380629249     0.908854807
6.572                0.383963221     0.907436775
6.583                0.387294109      0.90600524
6.594                0.390621872     0.904560188
6.605                0.393946469     0.903101606
6.616                0.397267857     0.901629477
6.627                0.400585995     0.900143789
6.638                0.403900841     0.898644525
6.649                0.407212355     0.897131672
6.66                 0.410520494     0.895605214
6.671                0.413825216     0.894065135
6.682                 0.41712648     0.892511422
6.693                0.420424243     0.890944058
6.704                0.423718464     0.889363027
6.715                0.427009101     0.887768313
6.726                0.430296112     0.886159902
6.737                0.433579454     0.884537775
6.748                0.436859086     0.882901918
6.759                0.440134965     0.881252313
6.77                 0.443407049     0.879588944
6.781                0.446675295     0.877911794
6.792                0.449939662     0.876220846
6.803                0.453200106     0.874516082
6.814                0.456456584     0.872797485
6.825                0.459709055     0.871065037
6.836                0.462957476     0.869318719
6.847                0.466201803     0.867558515
6.858                0.469441994     0.865784405
6.869                0.472678006     0.863996371
6.88                 0.475909795     0.862194393
6.891                0.479137319     0.860378453
6.902                0.482360534     0.858548531
6.913                0.485579397     0.856704608
6.924                0.488793864     0.854846663
6.935                0.492003892     0.852974677
6.946                0.495209437     0.851088629
6.957                0.498410455     0.849188497
6.968                0.501606902     0.847274262
6.979                0.504798735     0.845345901
6.99                 0.507985909     0.843403393
7.001                0.511168381     0.841446717
7.012                0.514346104     0.839475849
7.023                0.517519036     0.837490767
7.034                0.520687132     0.835491449
7.045                0.523850346      0.83347787
7.056                0.527008635     0.831450009
7.067                0.530161952     0.829407839
7.078                0.533310253     0.827351338
7.089                0.536453492     0.825280481
7.1                  0.539591624     0.823195242
7.111                0.542724604     0.821095597
7.122                0.545852385     0.818981518
7.133                0.548974922     0.816852981
7.144                0.552092168     0.814709959
7.155                0.555204078     0.812552425
7.166                0.558310604      0.81038035
7.177                0.561411701     0.808193708
7.188                 0.56450732     0.805992471
7.199                0.567597417     0.803776609
7.21                 0.570681942     0.801546093
7.221                0.573760849     0.799300894
7.232                 0.57683409     0.797040982
7.243                0.579901617     0.794766326
7.254                0.582963382     0.792476896
7.265                0.586019338     0.790172659
7.276                0.589069434     0.787853583
7.287                0.592113624     0.785519636
7.298                0.595151857     0.783170786
7.309                0.598184085     0.780806998
7.32                 0.601210258     0.778428237
7.331                0.604230326     0.776034471
7.342                 0.60724424     0.773625662
7.353                0.610251948     0.771201776
7.364                0.613253401     0.768762776
7.375                0.616248548     0.766308624
7.386                0.619237337     0.763839283
7.397                0.622219718     0.761354716
7.408                0.625195638     0.758854882
7.419                0.628165045     0.756339742
7.43                 0.631127887     0.753809256
7.441                0.634084111     0.751263383
7.452                0.637033664     0.748702082
7.463                0.639976493      0.74612531
7.474                0.642912543     0.743533024
7.485                0.645841761      0.74092518
7.496                0.648764093     0.738301734
7.507                0.651679482      0.73566264
7.518                0.654587875     0.733007853
7.529                0.657489214     0.730337325
7.54                 0.660383445      0.72765101
7.551                0.663270509     0.724948858
7.562                0.666150351     0.722230821
7.573                0.669022913     0.719496847
7.584                0.671888136     0.716746887
7.595                0.674745963     0.713980888
7.606                0.677596333     0.711198797
7.617                0.680439189     0.708400562
7.628                0.683274469     0.705586126
7.639                0.686102114     0.702755435
7.65                 0.688922062     0.699908432
7.661                0.691734251      0.69704506
7.672                 0.69453862     0.694165259
7.683                0.697335105     0.691268971
7.694                0.700123643     0.688356135
7.705                 0.70290417     0.685426689
7.716                0.705676622      0.68248057
7.727                0.708440932     0.679517714
7.738                0.711197036     0.676538057
7.749                0.713944866     0.673541532
7.76                 0.716684355     0.670528072
7.771                0.719415434     0.667497608
7.782                0.722138035     0.664450071
7.793                0.724852089     0.661385389
7.804                0.727557524     0.658303491
7.815                0.730254269     0.655204302
7.826                0.732942253     0.652087748
7.837                0.735621402     0.648953753
7.848                0.738291642     0.645802238
7.859                0.740952899     0.642633126
7.87                 0.743605098     0.639446335
7.881                 0.74624816     0.636241783
7.892                 0.74888201     0.633019388
7.903                0.751506567     0.629779065
7.914                0.754121754     0.626520726
7.925                0.756727488     0.623244285
7.936                0.759323688      0.61994965
7.947                0.761910272     0.616636733
7.958                0.764487155     0.613305438
7.969                0.767054252     0.609955672
7.98                 0.769611476     0.606587339
7.991                 0.77215874      0.60320034
8.002                0.774695955     0.599794575
8.013                0.777223031     0.596369944
8.024                0.779739875     0.592926341
8.035                0.782246396     0.589463662
8.046                0.784742498     0.585981799
8.057                0.787228086     0.582480644
8.068                0.789703062     0.578960083
8.079                0.792167328     0.575420004
8.09                 0.794620782     0.571860292
8.101                0.797063323     0.568280828
8.112                0.799494846     0.564681492
8.123                0.801915246     0.561062162
8.134                0.804324416     0.557422714
8.145                0.806722247      0.55376302
8.156                0.809108627     0.550082952
8.167                0.811483443     0.546382378
8.178                 0.81384658     0.542661163
8.189                0.816197921     0.538919172
8.2                  0.818537347     0.535156264
8.211                0.820864737     0.531372298
8.222                0.823179966     0.527567129
8.233                 0.82548291      0.52374061
8.244                0.827773439     0.519892591
8.255                0.830051423     0.516022919
8.266                0.832316728     0.512131438
8.277                 0.83456922     0.508217989
8.288                0.836808759      0.50428241
8.299                0.839035204     0.500324536
8.31                 0.841248411       0.4963442
8.321                0.843448233     0.492341229
8.332                0.845634521     0.488315448
8.343                 0.84780712     0.484266681
8.354                0.849965876     0.480194745
8.365                0.852110628     0.476099455
8.376                0.854241213     0.471980623
8.387                0.856357466     0.467838056
8.398                0.858459216     0.463671559
8.409                 0.86054629     0.459480932
8.42                  0.86261851      0.45526597
8.431                0.864675695     0.451026467
8.442                0.866717659     0.446762211
8.453                0.868744214     0.442472985
8.464                0.870755165      0.43815857
8.475                0.872750313     0.433818741
8.486                0.874729457     0.429453269
8.497                0.876692387     0.425061922
8.508                0.878638893      0.42064446
8.519                0.880568756     0.416200642
8.53                 0.882481753      0.41173022
8.541                0.884377657     0.407232942
8.552                0.886256234      0.40270855
8.563                0.888117244     0.398156782
8.574                0.889960443      0.39357737
8.585                0.891785579     0.388970042
8.596                0.893592394     0.384334518
8.607                0.895380625     0.379670516
8.618                    0.89715     0.374977745
8.629                0.898900242     0.370255909
8.64                 0.900631066     0.365504708
8.651                 0.90234218     0.360723834
8.662                0.904033283     0.355912973
8.673                0.905704069     0.351071806
8.684                 0.90735422     0.346200007
8.695                0.908983412     0.341297242
8.706                0.910591312     0.336363171
8.717                0.912177578      0.33139745
8.728                0.913741858     0.326399723
8.739                0.915283791     0.321369632
8.75                 0.916803005     0.316306807
8.761                0.918299118     0.311210874
8.772                0.919771738      0.30608145
8.783                0.921220462     0.300918144
8.794                0.922644874     0.295720558
8.805                0.924044547     0.290488286
8.816                0.925419042     0.285220913
8.827                0.926767907     0.279918016
8.838                0.928090676     0.274579163
8.849                 0.92938687     0.269203914
8.86                 0.930655997      0.26379182
8.871                0.931897546     0.258342423
8.882                0.933110997     0.252855254
8.893                0.934295808     0.247329839
8.904                0.935451425     0.241765689
8.915                0.936577275     0.236162308
8.926                0.937672768     0.230519192
8.937                0.938737294     0.224835822
8.948                0.939770226     0.219111674
8.959                0.940770917     0.213346209
8.97                 0.941738699      0.20753888
8.981                0.942672882     0.201689129
8.992                0.943572755     0.195796385
9.003                0.944437584     0.189860069
9.014                 0.94526661     0.183879587
9.025                0.946059052     0.177854338
9.036                0.946814099     0.171783704
9.047                0.947530917     0.165667058
9.058                0.948208643     0.159503762
9.069                0.948846385     0.153293164
9.08                  0.94944322       0.1470346
9.091                0.949998195     0.140727394
9.102                0.950510325     0.134370856
9.113                 0.95097859     0.127964285
9.124                0.951401935     0.121506966
9.135                0.951779269     0.114998173
9.146                0.952109462     0.108437163
9.157                0.952391346     0.101823184
9.168                0.952623709     0.095155468
9.179                0.952805299    0.0884332358
9.19                 0.952934818    0.0816556936
9.201                 0.95301092    0.0748220351
9.212                0.953032213    0.0679314404
9.223                0.952997252    0.0609830769
9.234                0.952904541    0.0539760986
9.245                0.952752527     0.046909647
9.256                0.952539603    0.0397828507
9.267                0.952264098    0.0325948259
9.278                0.951924282    0.0253446767
9.289                0.951518359    0.0180314951
9.3                  0.951044464    0.0106543619
9.311                0.950500661    0.0032123467
9.322                0.949884944  -0.00429549133
9.333                0.949195224    -0.011870103
9.344                0.948429336   -0.0195124483
9.355                 0.94758503   -0.0272234957
9.366                0.946659967   -0.0350042213
9.377                0.945651718   -0.0428556077
9.388                0.944557756    -0.050778643
9.399                0.943375456   -0.0587743195
9.41                 0.942102089   -0.0668436326
9.421                0.940734816   -0.0749875785
9.432                0.939270684   -0.0832071535
9.443                 0.93770662   -0.0915033511
9.454                0.936039429   -0.0998771606
9.465                0.934265785    -0.108329564
9.476                0.932382225    -0.116861535
9.487                0.930385146    -0.125474034
9.498                0.928270794    -0.134168006
9.509                0.926035262    -0.142944377
9.52                 0.923674481    -0.151804051
9.531                0.921184212    -0.160747904
9.542                0.918560038    -0.169776782
9.553                0.915797358    -0.178891491
9.564                0.912891378    -0.188092797
9.575                0.909837101    -0.197381419
9.586                 0.90662932    -0.206758018
9.597                0.903262607    -0.216223194
9.608                0.899731303    -0.225777475
9.619                0.896029511    -0.235421311
9.63                 0.892151081    -0.245155064
9.641                0.888089602    -0.254978993
9.652                0.883838389     -0.26489325
9.663                0.879390474     -0.27489786
9.674                0.874738591    -0.284992712
9.685                0.869875164    -0.295177543
9.696                0.864792297    -0.305451922
9.707                0.859481758     -0.31581523
9.718                0.853934966    -0.326266642
9.729                 0.84814298    -0.336805108
9.74                 0.842096482    -0.347429326
9.751                0.835785765    -0.358137719
9.762                0.829200719    -0.368928409
9.773                0.822330817    -0.379799184
9.784                0.815165101     -0.39074747
9.795                0.807692168    -0.401770291
9.806                 0.79990016    -0.412864235
9.817                0.791776748    -0.424025413
9.828                0.783309123    -0.435249409
9.839                0.774483984    -0.446531238
9.85                 0.765287528    -0.457865291
9.861                0.755705448    -0.469245276
9.872                 0.74572292    -0.480664163
9.883                0.735324605    -0.492114111
9.894                0.724494648    -0.503586402
9.905                 0.71321668    -0.515071362
9.916                0.701473828     -0.52655828
9.927                0.689248723    -0.538035321
9.938                0.676523525    -0.549489429
9.949                0.663279939    -0.560906232
9.96                 0.649499254    -0.572269928
9.971                 0.63516238    -0.583563178
9.982                0.620249898    -0.594766984
9.993                0.604742125    -0.605860559
10.004               0.588619184    -0.616821201
10.015               0.571861096    -0.627624148
10.026               0.554447884    -0.638242438
10.037               0.536359697    -0.648646758
10.048               0.517576953    -0.658805293
10.059               0.498080503     -0.66868357
10.07                0.477851828    -0.678244306
10.081                0.45687325    -0.687447249
10.092               0.435128185    -0.696249033
10.103               0.412601422    -0.704603036
10.114               0.389279439    -0.712459244
10.125               0.365150752     -0.71976414
10.136               0.340206312    -0.726460607
10.147                0.31443993    -0.732487862
10.158               0.287848756    -0.737781417
10.169               0.260433791    -0.742273089
10.18                0.232200446    -0.745891056
10.191               0.203159135    -0.748559973
10.202               0.173325913    -0.750201155
10.213               0.142723136    -0.750732849
10.224               0.111380149    -0.750070584
10.235              0.0793339915     -0.74812764
10.246              0.0466300979    -0.744815619
10.257              0.0133229927    -0.740045147
10.268             -0.0205230501     -0.73372671
10.279             -0.0548333996    -0.725771625
10.29              -0.0895225376    -0.716093168
10.301              -0.124493634    -0.704607833
10.312              -0.159638258    -0.691236743
10.323              -0.194836259    -0.675907188
10.334              -0.229955844    -0.658554271
10.345              -0.264853896    -0.639122653
10.356              -0.299376548    -0.617568348
10.367              -0.333360056    -0.593860533
10.378              -0.366631979    -0.567983329
10.389              -0.399012678    -0.539937492
10.4                -0.430317149    -0.509741948
10.411              -0.460357163    -0.477435119
10.422              -0.488943692    -0.443075961
10.433              -0.515889588    -0.406744654
10.444              -0.541012449    -0.368542893
10.455              -0.564137609    -0.328593712
10.466              -0.585101161    -0.287040838
10.477              -0.603752935    -0.244047518
10.488              -0.619959312    -0.199794864
10.499              -0.633605802    -0.154479699
10.51               -0.644599265    -0.108311987
10.521              -0.652869715   -0.0615118863
10.532              -0.658371624   -0.0143065219
10.543              -0.661084684    0.0330734243
10.554              -0.661014001    0.0803972017
10.565              -0.658189713     0.127437446
10.576              -0.652666056     0.173973495
10.587              -0.644519931     0.219794463
10.598              -0.633849014     0.264701993
10.609              -0.620769511     0.308512616
10.62               -0.605413623     0.351059665
10.631              -0.587926836     0.392194725
10.642               -0.56846511     0.431788602
10.653              -0.547192064     0.469731827
10.664              -0.524276237     0.505934724
10.675              -0.499888496     0.540327077
10.686               -0.47419963     0.572857456
10.697              -0.447378203     0.603492251
10.708              -0.419588654     0.632214471
10.719              -0.390989698     0.659022382
10.73               -0.361733002     0.683928022
10.741              -0.331962148     0.706955654
10.752              -0.301811851     0.728140204
10.763               -0.27140744      0.74752572
10.774              -0.240864538     0.765163882
10.785              -0.210288957     0.781112588
10.796              -0.179776746     0.795434645
10.807              -0.149414382     0.808196558
10.818              -0.119279076     0.819467441
10.829             -0.0894391653     0.829318046
10.84              -0.0599545704     0.837819908
10.851             -0.0308773033     0.845044605
10.862            -0.00225199964     0.851063129
10.873              0.0258835312     0.855945352
10.884              0.0534977545     0.859759593
10.895              0.0805648653     0.862572265
10.9                0.0926814821     0.863537113
10.906               0.107064259     0.864447596
10.917               0.132980021     0.865447422
10.928               0.158300444     0.865631033
10.939               0.183017573     0.865055075
10.95                0.207126776     0.863773489
10.961               0.230626351     0.861837495
10.972               0.253517159     0.859295596
10.983               0.275802296     0.856193615
10.994               0.297486781     0.852574747
11.005               0.318577282     0.848479632
11.016                0.33908187     0.843946439
11.027               0.359009791      0.83901095
11.038               0.378371269     0.833706667
11.049               0.397177321     0.828064909
11.06                0.415439606     0.822114919
11.071               0.433170279      0.81588397
11.082               0.450381872     0.809397467
11.093               0.467087181     0.802679054
11.104               0.483299175     0.795750714
11.115               0.499030914     0.788632868
11.126               0.514295475     0.781344467
11.137               0.529105896      0.77390309
11.148               0.543475121     0.766325024
11.159               0.557415954     0.758625353
11.17                0.570941026     0.750818035
11.181               0.584062763     0.742915974
11.192                0.59679336     0.734931098
11.203               0.609144759     0.726874419
11.214               0.621128636     0.718756101
11.225               0.632756386     0.710585515
11.236               0.644039115     0.702371298
11.247               0.654987631     0.694121403
11.258               0.665612443     0.685843147
11.269               0.675923756      0.67754326
11.28                0.685931473     0.669227922
11.291               0.695645193     0.660902808
11.302               0.705074218     0.652573122
11.313               0.714227552     0.644243632
11.324               0.723113907       0.6359187
11.335               0.731741709     0.627602317
11.346               0.740119102     0.619298124
11.357               0.748253957     0.611009443
11.368               0.756153875     0.602739299
11.379               0.763826197     0.594490442
11.39                0.771278007     0.586265368
11.401               0.778516145     0.578066336
11.412                0.78554721     0.569895391
11.423               0.792377567     0.561754374
11.434               0.799013358     0.553644942
11.445               0.805460507     0.545568582
11.456               0.811724724     0.537526619
11.467               0.817811519     0.529520237
11.478               0.823726204      0.52155048
11.489               0.829473902     0.513618272
11.5                  0.83505955     0.505724419
11.511               0.840487913     0.497869625
11.522               0.845763582     0.490054493
11.533               0.850890985      0.48227954
11.544               0.855874394     0.474545198
11.555               0.860717925     0.466851824
11.566               0.865425552     0.459199707
11.577               0.870001105     0.451589069
11.588               0.874448279     0.444020077
11.599               0.878770638     0.436492841
11.61                0.882971622     0.429007423
11.621               0.887054547     0.421563842
11.632               0.891022617     0.414162072
11.643               0.894878921     0.406802053
11.654                0.89862644     0.399483687
11.665               0.902268053      0.39220685
11.676                0.90580654     0.384971384
11.687               0.909244584     0.377777109
11.698               0.912584776     0.370623821
11.709               0.915829618     0.363511295
11.72                0.918981527     0.356439286
11.731                0.92204284     0.349407533
11.742               0.925015812      0.34241576
11.753               0.927902624     0.335463677
11.764               0.930705383     0.328550981
11.775               0.933426127     0.321677361
11.786               0.936066824     0.314842494
11.797                0.93862938     0.308046051
11.808               0.941115636     0.301287694
11.819               0.943527374     0.294567079
11.83                0.945866316      0.28788386
11.841               0.948134132     0.281237683
11.852               0.950332434     0.274628193
11.863               0.952462784      0.26805503
11.874               0.954526695     0.261517835
11.885               0.956525629     0.255016246
11.896               0.958461006       0.2485499
11.907               0.960334197     0.242118433
11.918               0.962146533     0.235721483
11.929               0.963899302     0.229358688
11.94                0.965593753     0.223029686
11.951               0.967231096     0.216734118
11.962               0.968812503     0.210471624
11.973               0.970339112     0.204241849
11.984               0.971812025     0.198044439
11.995               0.973232312     0.191879043
12.006                0.97460101     0.185745311
12.017               0.975919124     0.179642898
12.028               0.977187631     0.173571461
12.039               0.978407479      0.16753066
12.05                0.979579586      0.16152016
12.061               0.980704846     0.155539629
12.072               0.981784125     0.149588737
12.083               0.982818264     0.143667159
12.094               0.983808081     0.137774575
12.105                0.98475437     0.131910666
12.116               0.985657901      0.12607512
12.127               0.986519425     0.120267627
12.138               0.987339671     0.114487883
12.149               0.988119344     0.108735586
12.16                0.988859135     0.103010438
12.171               0.989559712    0.0973121488
12.182               0.990221726    0.0916404281
12.193                0.99084581    0.0859949918
12.204                0.99143258    0.0803755597
12.215               0.991982634    0.0747818559
12.226               0.992496556    0.0692136083
12.237               0.992974912    0.0636705494
12.248               0.993418256    0.0581524155
12.259               0.993827123    0.0526589471
12.27                0.994202039     0.047189889
12.281               0.994543513    0.0417449899
12.292                0.99485204    0.0363240024
12.303               0.995128105    0.0309266834
12.314               0.995372179    0.0255527937
12.325               0.995584721    0.0202020978
12.336               0.995766178    0.0148743645
12.347               0.995916987   0.00956936616
12.358               0.996037572   0.00428687907
12.369               0.996128349 -0.000973316697
12.38                 0.99618972  -0.00621143733
12.391               0.996222082   -0.0114276953
12.402               0.996225817   -0.0166222995
12.413               0.996201302   -0.0217954551
12.424               0.996148902   -0.0269473638
12.435               0.996068975   -0.0320782237
12.446               0.995961869   -0.0371882296
12.457               0.995827925   -0.0422775727
12.468               0.995667475   -0.0473464408
12.479               0.995480843   -0.0523950186
12.49                0.995268347   -0.0574234872
12.501               0.995030296   -0.0624320248