! TOUCHSTONE file generated by CST MICROWAVE STUDIO
! Date and time: Mon Jan 20 16:13:09 2025
! Project name: unitcell.cst
! Parameters = {A=1.20852; AB_sqInv=0.684378; B=0.025494; C0=2.097; Cj=0.359671; Cp=0.075; Ct=0.433746; ImZ=-36.6931; L=10; L1=0.3; Lp=0.35; Lpad=0.75; M=1.199; R=5.41; ReZ=3.70249; Rt=3.70249; V=10; Vj=2.984; W=10; W1=-0.15; W2=-0.15; Wcoop=3.29; Wgap=1; Wline=1.42; Wpad=0.475; Wpadgap=0.35; Xpad1=1.6225; Xpad2=0.7975; Xpad3=1.6225; Xpad4=0.7975; Xvar_centre=1.21; f=0.01; f0=11; fmax=11.25; fmin=10.75; h=0.8; phi=0; th=0.035; theta=0}
! Header version: 2024
! Port assignment regex: !\s*Touchstone port\s*([0-9]+)\s*=\s*(CST MWS port|CST DES external port|CST DES block port)\s*(.+)\s* \(\"(.*)\"\)(\s*mode\s*([0-9]+))?.*
! Touchstone port assignment:
! Touchstone port 1 = CST MWS port Zmax ("") mode 1
! S-Parameters are not renormalized. Unphysical impedance of 0 will be written to the file.
# GHz S RI R 0
6                   -0.259422092     0.772785993
6.011               -0.250707758     0.782130934
6.022               -0.241982759     0.790988535
6.033               -0.233262029     0.799384234
6.044               -0.224558458     0.807342229
6.055               -0.215883127     0.814885492
6.066               -0.207245523     0.822035793
6.077               -0.198653726     0.828813737
6.088               -0.190114579       0.8352388
6.099               -0.181633835     0.841329375
6.11                -0.173216292     0.847102819
6.121               -0.164865909     0.852575502
6.132               -0.156585911     0.857762852
6.143               -0.148378878     0.862679407
6.154               -0.140246831     0.867338862
6.165                 -0.1321913     0.871754116
6.176               -0.124213387     0.875937316
6.187               -0.116313826     0.879899899
6.198               -0.108493028     0.883652639
6.209               -0.100751127     0.887205679
6.22               -0.0930880162     0.890568575
6.231              -0.0855033849     0.893750329
6.242               -0.077996745     0.896759423
6.253              -0.0705674586     0.899603852
6.264              -0.0632147609     0.902291152
6.275              -0.0559377802     0.904828427
6.286              -0.0487355556     0.907222383
6.297              -0.0416070524     0.909479343
6.308               -0.034551176     0.911605277
6.319              -0.0275667835     0.913605822
6.33               -0.0206526946     0.915486302
6.341              -0.0138076999     0.917251747
6.352             -0.00703056959     0.918906912
6.363            -0.000320059796     0.920456293
6.374              0.00632508114     0.921904144
6.385               0.0129061076      0.92325449
6.396               0.0194242722     0.924511142
6.407                0.025880822     0.925677707
6.418               0.0322769952     0.926757607
6.429               0.0386140181     0.927754081
6.44                0.0448931032     0.928670203
6.451               0.0511154468     0.929508889
6.462               0.0572822273     0.930272904
6.473               0.0633946043     0.930964875
6.484               0.0694537168     0.931587296
6.495               0.0754606829     0.932142538
6.506               0.0814165986     0.932632852
6.517               0.0873225375     0.933060382
6.528               0.0931795505     0.933427163
6.539               0.0989886653     0.933735136
6.55                 0.104750887     0.933986146
6.561                0.110467195      0.93418195
6.572                 0.11613855     0.934324223
6.583                0.121765885     0.934414561
6.594                0.127350112     0.934454484
6.605                0.132892121     0.934445445
6.616                0.138392778     0.934388828
6.627                0.143852927     0.934285953
6.638                0.149273392     0.934138083
6.649                0.154654973     0.933946421
6.66                 0.159998451      0.93371212
6.671                0.165304585     0.933436279
6.682                0.170574113      0.93311995
6.693                0.175807755     0.932764138
6.704                0.181006212     0.932369807
6.715                0.186170163     0.931937877
6.726                0.191300272      0.93146923
6.737                0.196397182      0.93096471
6.748                0.201461519     0.930425125
6.759                0.206493894      0.92985125
6.77                 0.211494898     0.929243829
6.781                0.216465109     0.928603572
6.792                0.221405085     0.927931163
6.803                0.226315373     0.927227257
6.814                  0.2311965     0.926492483
6.825                0.236048984     0.925727443
6.836                0.240873323     0.924932718
6.847                0.245670005     0.924108862
6.858                0.250439503     0.923256412
6.869                0.255182277     0.922375879
6.88                 0.259898775     0.921467759
6.891                 0.26458943     0.920532524
6.902                0.269254666     0.919570632
6.913                0.273894894     0.918582521
6.924                0.278510513     0.917568613
6.935                0.283101911     0.916529315
6.946                0.287669467     0.915465018
6.957                0.292213548     0.914376097
6.968                0.296734509     0.913262915
6.979                0.301232699     0.912125822
6.99                 0.305708455     0.910965153
7.001                0.310162104     0.909781233
7.012                0.314593967     0.908574373
7.023                0.319004352     0.907344875
7.034                0.323393562     0.906093029
7.045                0.327761889     0.904819115
7.056                0.332109618     0.903523402
7.067                0.336437028      0.90220615
7.078                0.340744386     0.900867612
7.089                0.345031956     0.899508027
7.1                  0.349299992     0.898127632
7.111                0.353548742     0.896726651
7.122                0.357778446     0.895305302
7.133                0.361989339     0.893863795
7.144                0.366181649     0.892402333
7.155                0.370355596     0.890921113
7.166                0.374511397     0.889420323
7.177                 0.37864926     0.887900147
7.188                0.382769389     0.886360761
7.199                0.386871982     0.884802336
7.21                 0.390957231     0.883225036
7.221                0.395025323     0.881629022
7.232                 0.39907644     0.880014447
7.243                0.403110758     0.878381459
7.254                 0.40712845     0.876730203
7.265                0.411129682     0.875060818
7.276                0.415114617     0.873373437
7.287                0.419083412     0.871668191
7.298                0.423036221     0.869945205
7.309                0.426973192       0.8682046
7.32                 0.430894471     0.866446494
7.331                0.434800197     0.864670999
7.342                0.438690508     0.862878225
7.353                0.442565537     0.861068278
7.364                0.446425411      0.85924126
7.375                0.450270258      0.85739727
7.386                0.454100197     0.855536404
7.397                0.457915347     0.853658752
7.408                0.461715823     0.851764405
7.419                0.465501736     0.849853449
7.43                 0.469273193     0.847925966
7.441                0.473030301     0.845982036
7.452                0.476773161     0.844021738
7.463                 0.48050187     0.842045145
7.474                0.484216525      0.84005233
7.485                0.487917219     0.838043362
7.496                0.491604042     0.836018308
7.507                 0.49527708     0.833977233
7.518                0.498936418     0.831920199
7.529                0.502582138     0.829847267
7.54                  0.50621432     0.827758493
7.551                0.509833039     0.825653933
7.562                0.513438371     0.823533641
7.573                0.517030387     0.821397668
7.584                0.520609156     0.819246064
7.595                0.524174746     0.817078875
7.606                0.527727221     0.814896148
7.617                0.531266644     0.812697925
7.628                0.534793077     0.810484249
7.639                0.538306576     0.808255159
7.65                 0.541807198     0.806010694
7.661                0.545294998      0.80375089
7.672                0.548770028     0.801475781
7.683                0.552232338     0.799185402
7.694                0.555681977     0.796879783
7.705                 0.55911899     0.794558953
7.716                0.562543424     0.792222943
7.727                 0.56595532     0.789871777
7.738                0.569354719     0.787505482
7.749                0.572741662     0.785124081
7.76                 0.576116185     0.782727597
7.771                0.579478324      0.78031605
7.782                0.582828115     0.777889459
7.793                0.586165588     0.775447843
7.804                0.589490776     0.772991219
7.815                0.592803708     0.770519601
7.826                0.596104412     0.768033004
7.837                0.599392914      0.76553144
7.848                0.602669239      0.76301492
7.859                0.605933411     0.760483454
7.87                 0.609185451     0.757937052
7.881                 0.61242538     0.755375719
7.892                0.615653217     0.752799463
7.903                 0.61886898     0.750208289
7.914                0.622072685     0.747602199
7.925                0.625264347     0.744981197
7.936                 0.62844398     0.742345282
7.947                0.631611596     0.739694456
7.958                0.634767205     0.737028717
7.969                0.637910819     0.734348063
7.98                 0.641042444     0.731652488
7.991                0.644162088      0.72894199
8.002                0.647269758      0.72621656
8.013                0.650365457     0.723476193
8.024                0.653449189     0.720720879
8.035                0.656520956     0.717950609
8.046                0.659580759     0.715165371
8.057                0.662628598     0.712365153
8.068                0.665664471     0.709549943
8.079                0.668688375     0.706719725
8.09                 0.671700307     0.703874483
8.101                0.674700262     0.701014201
8.112                0.677688233      0.69813886
8.123                0.680664213      0.69524844
8.134                0.683628193     0.692342922
8.145                0.686580164     0.689422283
8.156                0.689520114     0.686486499
8.167                0.692448032     0.683535547
8.178                0.695363904     0.680569401
8.189                0.698267716     0.677588034
8.2                  0.701159453     0.674591417
8.211                0.704039097     0.671579521
8.222                0.706906631     0.668552315
8.233                0.709762035     0.665509767
8.244                 0.71260529     0.662451844
8.255                0.715436374     0.659378511
8.266                0.718255265     0.656289732
8.277                0.721061938      0.65318547
8.288                0.723856369     0.650065684
8.299                0.726638532     0.646930336
8.31                 0.729408399     0.643779384
8.321                0.732165942     0.640612785
8.332                0.734911131     0.637430493
8.343                0.737643935     0.634232464
8.354                0.740364322      0.63101865
8.365                0.743072259     0.627789002
8.376                 0.74576771     0.624543469
8.387                 0.74845064        0.621282
8.398                0.751121011     0.618004542
8.409                0.753778786     0.614711038
8.42                 0.756423923     0.611401433
8.431                0.759056382     0.608075667
8.442                0.761676121     0.604733682
8.453                0.764283094     0.601375416
8.464                0.766877258     0.598000805
8.475                0.769458565     0.594609784
8.486                0.772026967     0.591202286
8.497                0.774582415     0.587778243
8.508                0.777124858     0.584337584
8.519                0.779654242     0.580880238
8.53                 0.782170514      0.57740613
8.541                0.784673618     0.573915183
8.552                0.787163498     0.570407321
8.563                0.789640094     0.566882462
8.574                0.792103345     0.563340526
8.585                0.794553191     0.559781428
8.596                0.796989567     0.556205081
8.607                0.799412407     0.552611399
8.618                0.801821644     0.549000289
8.629                 0.80421721     0.545371661
8.64                 0.806599033     0.541725418
8.651                0.808967041     0.538061463
8.662                0.811321158     0.534379698
8.673                0.813661309     0.530680021
8.684                0.815987414     0.526962326
8.695                0.818299393     0.523226508
8.706                0.820597164     0.519472456
8.717                 0.82288064      0.51570006
8.728                0.825149735     0.511909204
8.739                 0.82740436     0.508099772
8.75                 0.829644422     0.504271643
8.761                0.831869828     0.500424695
8.772                0.834080482     0.496558803
8.783                0.836276283     0.492673837
8.794                0.838457131     0.488769666
8.805                0.840622921     0.484846156
8.816                0.842773547     0.480903169
8.827                0.844908899     0.476940565
8.838                0.847028864     0.472958199
8.849                0.849133327     0.468955924
8.86                 0.851222169      0.46493359
8.871                 0.85329527     0.460891042
8.882                0.855352503     0.456828123
8.893                0.857393742     0.452744672
8.904                0.859418856     0.448640523
8.915                0.861427708     0.444515508
8.926                0.863420162     0.440369454
8.937                0.865396074     0.436202186
8.948                  0.8673553     0.432013522
8.959                 0.86929769     0.427803277
8.97                  0.87122309     0.423571264
8.981                0.873131342     0.419317289
8.992                0.875022285     0.415041154
9.003                0.876895751     0.410742658
9.014                0.878751571     0.406421594
9.025                0.880589568      0.40207775
9.036                0.882409563      0.39771091
9.047                0.884211369     0.393320854
9.058                0.885994797     0.388907356
9.069                0.887759651     0.384470183
9.08                 0.889505729       0.3800091
9.091                0.891232824     0.375523864
9.102                0.892940725     0.371014229
9.113                0.894629212      0.36647994
9.124                 0.89629806     0.361920739
9.135                0.897947038     0.357336362
9.146                0.899575909     0.352726536
9.157                0.901184426     0.348090986
9.168                0.902772339     0.343429427
9.179                0.904339387     0.338741569
9.19                 0.905885304     0.334027115
9.201                0.907409815     0.329285763
9.212                0.908912637     0.324517201
9.223                0.910393478     0.319721112
9.234                0.911852038      0.31489717
9.245                0.913288008     0.310045043
9.256                0.914701069      0.30516439
9.267                0.916090893     0.300254864
9.278                0.917457141     0.295316108
9.289                0.918799464     0.290347757
9.3                  0.920117502     0.285349439
9.311                0.921410884     0.280320771
9.322                0.922679227     0.275261363
9.333                0.923922136     0.270170815
9.344                0.925139204     0.265048718
9.355                 0.92633001     0.259894654
9.366                 0.92749412     0.254708194
9.377                0.928631085       0.2494889
9.388                0.929740443     0.244236323
9.399                0.930821716     0.238950004
9.41                 0.931874409     0.233629473
9.421                0.932898012     0.228274249
9.432                0.933891999     0.222883841
9.443                0.934855823     0.217457743
9.454                0.935788922     0.211995441
9.465                0.936690711     0.206496408
9.476                0.937560589     0.200960103
9.487                0.938397931     0.195385973
9.498                0.939202093     0.189773454
9.509                0.939972406     0.184121966
9.52                 0.940708178     0.178430918
9.531                0.941408694     0.172699703
9.542                0.942073211     0.166927701
9.553                0.942700963     0.161114277
9.564                0.943291152     0.155258783
9.575                0.943842954     0.149360553
9.586                0.944355514     0.143418908
9.597                0.944827945     0.137433153
9.608                0.945259328     0.131402576
9.619                0.945648708      0.12532645
9.63                 0.945995097      0.11920403
9.641                0.946297466     0.113034555
9.652                 0.94655475     0.106817247
9.663                0.946765841      0.10055131
9.674                 0.94692959    0.0942359297
9.685                0.947044803    0.0878702749
9.696                0.947110237    0.0814534954
9.707                0.947124603    0.0749847226
9.718                0.947086559    0.0684630691
9.729                0.946994712    0.0618876282
9.74                  0.94684761    0.0552574744
9.751                0.946643744    0.0485716625
9.762                0.946381544    0.0418292279
9.773                0.946059374    0.0350291861
9.784                0.945675532    0.0281705332
9.795                0.945228245    0.0212522455
9.806                0.944715666    0.0142732794
9.817                 0.94413587   0.00723257177
9.828                 0.94348685  0.000129039952
9.839                0.942766516  -0.00703841802
9.85                 0.941972686   -0.0142709231
9.861                0.941103083    -0.021569615
9.872                0.940155334   -0.0289356516
9.883                0.939126961   -0.0363702081
9.894                0.938015376   -0.0438744771
9.905                0.936817878   -0.0514496668
9.916                0.935531643   -0.0590970008
9.927                0.934153723   -0.0668177166
9.938                0.932681037    -0.074613064
9.949                0.931110361   -0.0824843041
9.96                 0.929438328   -0.0904327073
9.971                0.927661412    -0.098459551
9.982                0.925775927    -0.106566118
9.993                0.923778014    -0.114753692
10.004               0.921663633    -0.123023557
10.015               0.919428556    -0.131376993
10.026               0.917068353    -0.139815273
10.037               0.914578384    -0.148339654
10.048               0.911953785    -0.156951379
10.059               0.909189461    -0.165651668
10.07                 0.90628007    -0.174441713
10.081               0.903220007    -0.183322668
10.092               0.900003399    -0.192295647
10.103                0.89662408    -0.201361709
10.114               0.893075583    -0.210521855
10.125                0.88935112    -0.219777013
10.136               0.885443567    -0.229128028
10.147               0.881345445    -0.238575648
10.158                 0.8770489    -0.248120509
10.169               0.872545685    -0.257763121
10.18                0.867827139    -0.267503848
10.191               0.862884166    -0.277342888
10.202               0.857707208    -0.287280251
10.213               0.852286227    -0.297315734
10.224               0.846610679    -0.307448896
10.235               0.840669485    -0.317679024
10.246               0.834451009    -0.328005099
10.257               0.827943028    -0.338425763
10.268               0.821132707    -0.348939274
10.279               0.814006566    -0.359543462
10.29                0.806550455    -0.370235675
10.301               0.798749523    -0.381012728
10.312               0.790588189    -0.391870836
10.323               0.782050114     -0.40280555
10.334                0.77311817    -0.413811678
10.345               0.763774416    -0.424883205
10.356               0.754000069    -0.436013196
10.367               0.743775485    -0.447193701
10.378               0.733080134     -0.45841564
10.389               0.721892586    -0.469668682
10.4                 0.710190501    -0.480941111
10.411               0.697950623     -0.49221968
10.422               0.685148783    -0.503489451
10.433               0.671759912    -0.514733616
10.444               0.657758066    -0.525933314
10.455               0.643116468    -0.537067417
10.466               0.627807557    -0.548112312
10.477               0.611803074    -0.559041656
10.488               0.595074155    -0.569826116
10.499               0.577591462    -0.580433097
10.51                0.559325347    -0.590826443
10.521                0.54024605    -0.600966124
10.532               0.520323943    -0.610807914
10.543               0.499529829    -0.620303048
10.554               0.477835289    -0.629397877
10.565               0.455213107     -0.63803351
10.576                0.43163776    -0.646145469
10.587               0.407085996    -0.653663346
10.598               0.381537498    -0.660510483
10.609               0.354975653    -0.666603685
10.62                0.327388422    -0.671852989
10.631               0.298769331    -0.676161492
10.642               0.269118576    -0.679425278
10.653               0.238444246     -0.68153346
10.664               0.206763668    -0.682368372
10.675               0.174104864    -0.681805942
10.686               0.140508097    -0.679716289
10.697                 0.1060275     -0.67596457
10.708              0.0707327374    -0.670412142
10.719               0.034710676    -0.662918047
10.73             -0.00193301452    -0.653340888
10.741             -0.0390723837    -0.641541102
10.752             -0.0765599408    -0.627383662
10.763              -0.114225709    -0.610741208
10.774              -0.151876703    -0.591497587
10.785              -0.189296956    -0.569551758
10.796                -0.2262482    -0.544821992
10.807              -0.262471335     -0.51725025
10.818              -0.297688772      -0.4868066
10.829              -0.331607718    -0.453493479
10.84                -0.36392445    -0.417349595
10.851              -0.394329544    -0.378453224
10.862              -0.422513981    -0.336924658
10.873              -0.448175977    -0.292927565
10.884              -0.471028317     -0.24666905
10.895               -0.49080591     -0.19839825
10.9                -0.498714303     -0.17586838
10.906              -0.507273225    -0.148403392
10.917              -0.520231235   -0.0970072922
10.928              -0.529523519   -0.0445614215
10.939              -0.535041145   0.00856128483
10.95               -0.536726086    0.0619745631
10.961              -0.534572931     0.115287548
10.972              -0.528628813     0.168113675
10.983              -0.518991557      0.22007934
10.994              -0.505806176     0.270831907
11.005              -0.489259935     0.320046729
11.016              -0.469576281     0.367432892
11.027              -0.447007986     0.412737534
11.038              -0.421829875     0.455748627
11.049              -0.394331474     0.496296268
11.06               -0.364809923     0.534252571
11.071                -0.3335634     0.569530318
11.082              -0.300885258      0.60208059
11.093              -0.267059028     0.631889608
11.104              -0.232354328     0.658975018
11.115              -0.197023712     0.683381841
11.126              -0.161300417     0.705178304
11.137              -0.125396927     0.724451698
11.148             -0.0895042738      0.74130442
11.159             -0.0537919525     0.755850285
11.17              -0.0184083518     0.768211177
11.181              0.0165184231      0.77851409
11.192              0.0508794297     0.786888555
11.203              0.0845835619     0.793464468
11.214               0.117556099     0.798370286
11.225               0.149737192     0.801731584
11.236               0.181080345     0.803669908
11.247                0.21155092     0.804301927
11.258               0.241124717     0.803738813
11.269               0.269786626     0.802085833
11.28                 0.29752938     0.799442113
11.291                0.32435241     0.795900539
11.302               0.350260813     0.791547779
11.313               0.375264418     0.786464388
11.324               0.399376959     0.780724983
11.335               0.422615343     0.774398471
11.346                0.44499901     0.767548308
11.357               0.466549377     0.760232786
11.368               0.487289353     0.752505333
11.379               0.507242929     0.744414814
11.39                0.526434823     0.736005838
11.401               0.544890185     0.727319054
11.412               0.562634346     0.718391444
11.423               0.579692609     0.709256598
11.434               0.596090078     0.699944983
11.445               0.611851518     0.690484189
11.456               0.627001242     0.680899169
11.467               0.641563024     0.671212457
11.478               0.655560027     0.661444377
11.489               0.669014753      0.65161323
11.5                 0.681949004     0.641735475
11.511               0.694383858      0.63182589
11.522               0.706339652     0.621897721
11.533               0.717835975     0.611962825
11.544               0.728891669     0.602031792
11.555               0.739524835     0.592114064
11.566                0.74975284     0.582218039
11.577               0.759592333     0.572351172
11.588               0.769059264      0.56252006
11.599               0.778168896     0.552730523
11.61                0.786935832     0.542987681
11.621               0.795374032     0.533296018
11.632                0.80349684     0.523659443
11.643               0.811317003     0.514081346
11.654               0.818846692     0.504564653
11.665               0.826097533     0.495111862
11.676               0.833080621     0.485725094
11.687               0.839806549     0.476406127
11.698               0.846285424     0.467156429
11.709               0.852526894     0.457977192
11.72                0.858540166     0.448869359
11.731               0.864334026     0.439833647
11.742               0.869916858     0.430870577
11.753               0.875296666     0.421980486
11.764               0.880481088     0.413163556
11.775               0.885477416     0.404419823
11.786                0.89029261     0.395749195
11.797               0.894933317      0.38715147
11.808               0.899405885     0.378626343
11.819               0.903716376     0.370173424
11.83                 0.90787058     0.361792241
11.841               0.911874031     0.353482255
11.852               0.915732015      0.34524287
11.863               0.919449588     0.337073433
11.874               0.923031581     0.328973249
11.885               0.926482613     0.320941583
11.896               0.929807104     0.312977669
11.907               0.933009282     0.305080709
11.918               0.936093191     0.297249887
11.929               0.939062704     0.289484363
11.94                0.941921526     0.281783285
11.951               0.944673207     0.274145787
11.962               0.947321146     0.266570995
11.973               0.949868601      0.25905803
11.984               0.952318693     0.251606006
11.995               0.954674413     0.244214039
12.006               0.956938629     0.236881243
12.017               0.959114093     0.229606735
12.028               0.961203443     0.222389635
12.039               0.963209212     0.215229069
12.05                0.965133828     0.208124168
12.061               0.966979626     0.201074071
12.072               0.968748845     0.194077925
12.083               0.970443637     0.187134885
12.094               0.972066069     0.180244118
12.105               0.973618128     0.173404799
12.116               0.975101723     0.166616115
12.127               0.976518691     0.159877263
12.138               0.977870797     0.153187454
12.149               0.979159741     0.146545909
12.16                0.980387156     0.139951861
12.171               0.981554615     0.133404556
12.182               0.982663634     0.126903253
12.193                0.98371567     0.120447224
12.204               0.984712129     0.114035751
12.215               0.985654363     0.107668132
12.226               0.986543677     0.101343677
12.237               0.987381327    0.0950617069
12.248               0.988168526    0.0888215572
12.259               0.988906443    0.0826225753
12.27                0.989596204    0.0764641215
12.281               0.990238898    0.0703455681
12.292               0.990835575    0.0642663003
12.303               0.991387247    0.0582257151
12.314               0.991894893    0.0522232217
12.325               0.992359459    0.0462582414
12.336               0.992781856     0.040330207
12.347               0.993162966    0.0344385633
12.358               0.993503642    0.0285827662
12.369               0.993804708     0.022762283
12.38                 0.99406696    0.0169765922
12.391               0.994291169    0.0112251832
12.402               0.994478079   0.00550755608
12.413               0.994628411 -0.000176778561
12.424               0.994742863  -0.00582829966
12.435               0.994822111    -0.011447476
12.446               0.994866808   -0.0170347664
12.457               0.994877588   -0.0225906198
12.468               0.994855062   -0.0281154755
12.479               0.994799827   -0.0336097636
12.49                0.994712456   -0.0390739046
12.501               0.994593509   -0.0445083102