! TOUCHSTONE file generated by CST MICROWAVE STUDIO
! Date and time: Mon Jan 20 16:13:10 2025
! Project name: unitcell.cst
! Parameters = {A=1.22792; AB_sqInv=0.662933; B=0.025494; C0=2.097; Cj=0.329056; Cp=0.075; Ct=0.403294; ImZ=-39.4638; L=10; L1=0.3; Lp=0.35; Lpad=0.75; M=1.199; R=5.41; ReZ=3.58647; Rt=3.58647; V=11; Vj=2.984; W=10; W1=-0.15; W2=-0.15; Wcoop=3.29; Wgap=1; Wline=1.42; Wpad=0.475; Wpadgap=0.35; Xpad1=1.6225; Xpad2=0.7975; Xpad3=1.6225; Xpad4=0.7975; Xvar_centre=1.21; f=0.01; f0=11; fmax=11.25; fmin=10.75; h=0.8; phi=0; th=0.035; theta=0}
! Header version: 2024
! Port assignment regex: !\s*Touchstone port\s*([0-9]+)\s*=\s*(CST MWS port|CST DES external port|CST DES block port)\s*(.+)\s* \(\"(.*)\"\)(\s*mode\s*([0-9]+))?.*
! Touchstone port assignment:
! Touchstone port 1 = CST MWS port Zmax ("") mode 1
! S-Parameters are not renormalized. Unphysical impedance of 0 will be written to the file.
# GHz S RI R 0
6                   -0.388677941     0.527388515
6.011                -0.38368266     0.549758107
6.022               -0.377869491     0.571065961
6.033               -0.371349349     0.591334093
6.044               -0.364222149     0.610590506
6.055               -0.356577458     0.628867625
6.066               -0.348495217      0.64620099
6.077               -0.340046505     0.662628178
6.088               -0.331294292     0.678187931
6.099               -0.322294186     0.692919455
6.11                -0.313095141      0.70686186
6.121                -0.30374013     0.720053733
6.132               -0.294266767     0.732532803
6.143               -0.284707883     0.744335702
6.154               -0.275092049     0.755497783
6.165               -0.265444059     0.766053003
6.176               -0.255785359     0.776033846
6.187               -0.246134433     0.785471286
6.198               -0.236507155     0.794394771
6.209               -0.226917101     0.802832239
6.22                 -0.21737582     0.810810139
6.231               -0.207893085     0.818353473
6.242               -0.198477112     0.825485844
6.253               -0.189134751     0.832229507
6.264               -0.179871657     0.838605433
6.275               -0.170692443     0.844633364
6.286               -0.161600812     0.850331875
6.297               -0.152599677      0.85571844
6.308                -0.14369126     0.860809486
6.319               -0.134877188     0.865620457
6.33                 -0.12615857      0.87016587
6.341               -0.117536067     0.874459366
6.352               -0.109009957     0.878513771
6.363               -0.100580187     0.882341137
6.374              -0.0922464224     0.885952796
6.385              -0.0840080857     0.889359402
6.396              -0.0758643961     0.892570974
6.407              -0.0678144004     0.895596938
6.418              -0.0598570011     0.898446161
6.429              -0.0519909808     0.901126989
6.44               -0.0442150243     0.903647281
6.451              -0.0365277361     0.906014437
6.462              -0.0289276579     0.908235429
6.473              -0.0214132819     0.910316829
6.484              -0.0139830636     0.912264831
6.495             -0.00663543197      0.91408528
6.506             0.000631200704     0.915783689
6.517              0.00781843132     0.917365262
6.528               0.0149278589     0.918834915
6.539               0.0219610789     0.920197291
6.55                0.0289196778     0.921456778
6.561               0.0358052293     0.922617525
6.572               0.0426192903     0.923683458
6.583               0.0493633981      0.92465829
6.594               0.0560390677     0.925545538
6.605                 0.06264779     0.926348532
6.616               0.0691910296     0.927070427
6.627               0.0756702238     0.927714214
6.638               0.0820867816     0.928282731
6.649               0.0884420825     0.928778668
6.66                 0.094737476     0.929204578
6.671                0.100974282     0.929562888
6.682                0.107153788       0.9298559
6.693                0.113277253     0.930085802
6.704                0.119345904     0.930254677
6.715                0.125360939     0.930364503
6.726                0.131323524     0.930417162
6.737                0.137234795     0.930414447
6.748                 0.14309586     0.930358063
6.759                0.148907797     0.930249636
6.77                 0.154671655     0.930090714
6.781                0.160388454     0.929882773
6.792                0.166059188     0.929627221
6.803                0.171684824       0.9293254
6.814                0.177266299     0.928978591
6.825                0.182804529     0.928588018
6.836                0.188300401     0.928154849
6.847                0.193754778     0.927680198
6.858                  0.1991685     0.927165133
6.869                0.204542381     0.926610673
6.88                 0.209877215     0.926017791
6.891                0.215173772     0.925387421
6.902                  0.2204328     0.924720455
6.913                0.225655026     0.924017745
6.924                0.230841156      0.92328011
6.935                0.235991877     0.922508333
6.946                0.241107857     0.921703163
6.957                0.246189742     0.920865321
6.968                0.251238163     0.919995493
6.979                0.256253731     0.919094343
6.99                  0.26123704     0.918162503
7.001                0.266188667     0.917200582
7.012                0.271109175     0.916209163
7.023                0.275999107     0.915188806
7.034                0.280858993     0.914140051
7.045                0.285689347     0.913063412
7.056                0.290490671     0.911959388
7.067                0.295263449     0.910828455
7.078                0.300008153     0.909671071
7.089                0.304725243     0.908487678
7.1                  0.309415164     0.907278699
7.111                0.314078349     0.906044543
7.122                 0.31871522     0.904785601
7.133                0.323326185     0.903502253
7.144                0.327911643      0.90219486
7.155                 0.33247198     0.900863773
7.166                0.337007572     0.899509329
7.177                0.341518783     0.898131853
7.188                0.346005969     0.896731656
7.199                0.350469476     0.895309042
7.21                 0.354909638     0.893864298
7.221                0.359326782     0.892397707
7.232                0.363721224     0.890909537
7.243                0.368093274     0.889400048
7.254                 0.37244323     0.887869491
7.265                0.376771384     0.886318108
7.276                0.381078019     0.884746133
7.287                0.385363411      0.88315379
7.298                0.389627828     0.881541296
7.309                0.393871529     0.879908863
7.32                 0.398094768      0.87825669
7.331                0.402297792     0.876584975
7.342                0.406480839     0.874893905
7.353                0.410644142     0.873183662
7.364                0.414787927     0.871454422
7.375                0.418912415     0.869706355
7.386                0.423017819     0.867939624
7.397                0.427104348     0.866154388
7.408                0.431172203       0.8643508
7.419                0.435221581     0.862529006
7.43                 0.439252673      0.86068915
7.441                0.443265666     0.858831368
7.452                0.447260739     0.856955795
7.463                0.451238069     0.855062558
7.474                0.455197826     0.853151782
7.485                0.459140176     0.851223585
7.496                0.463065281     0.849278084
7.507                0.466973296     0.847315391
7.518                0.470864375     0.845335613
7.529                0.474738666     0.843338854
7.54                 0.478596312     0.841325215
7.551                0.482437453     0.839294793
7.562                0.486262226     0.837247682
7.573                0.490070761     0.835183971
7.584                0.493863187     0.833103749
7.595                0.497639629     0.831007099
7.606                0.501400207     0.828894102
7.617                0.505145039     0.826764836
7.628                0.508874239     0.824619378
7.639                0.512587916     0.822457799
7.65                 0.516286179     0.820280169
7.661                0.519969132     0.818086557
7.672                0.523636875     0.815877026
7.683                0.527289506     0.813651639
7.694                0.530927121     0.811410456
7.705                0.534549811     0.809153534
7.716                0.538157665      0.80688093
7.727                0.541750771     0.804592696
7.738                0.545329211     0.802288883
7.749                0.548893068     0.799969541
7.76                 0.552442418     0.797634715
7.771                0.555977339      0.79528445
7.782                0.559497903      0.79291879
7.793                0.563004181     0.790537775
7.804                0.566496243     0.788141444
7.815                0.569974154     0.785729835
7.826                0.573437979     0.783302982
7.837                0.576887779     0.780860919
7.848                0.580323614     0.778403678
7.859                 0.58374554     0.775931289
7.87                 0.587153614     0.773443779
7.881                0.590547889     0.770941177
7.892                0.593928415     0.768423506
7.903                0.597295242     0.765890791
7.914                0.600648417     0.763343053
7.925                0.603987985     0.760780312
7.936                0.607313991     0.758202587
7.947                0.610626474     0.755609896
7.958                0.613925475     0.753002254
7.969                0.617211032     0.750379675
7.98                  0.62048318     0.747742172
7.991                0.623741955     0.745089756
8.002                0.626987389     0.742422438
8.013                0.630219513     0.739740226
8.024                0.633438355     0.737043127
8.035                0.636643945     0.734331146
8.046                0.639836307     0.731604288
8.057                0.643015466     0.728862556
8.068                0.646181446     0.726105951
8.079                0.649334266     0.723334474
8.09                 0.652473948     0.720548122
8.101                0.655600509     0.717746895
8.112                0.658713965     0.714930788
8.123                0.661814333     0.712099795
8.134                0.664901626      0.70925391
8.145                0.667975856     0.706393126
8.156                0.671037034     0.703517433
8.167                 0.67408517      0.70062682
8.178                 0.67712027     0.697721276
8.189                0.680142343     0.694800787
8.2                  0.683151393      0.69186534
8.211                0.686147424     0.688914917
8.222                0.689130438     0.685949503
8.233                0.692100436     0.682969078
8.244                0.695057418     0.679973622
8.255                0.698001383     0.676963114
8.266                0.700932326     0.673937532
8.277                0.703850244     0.670896852
8.288                0.706755131     0.667841048
8.299                0.709646979     0.664770094
8.31                 0.712525781     0.661683961
8.321                0.715391526      0.65858262
8.332                0.718244203     0.655466039
8.343                  0.7210838     0.652334188
8.354                0.723910302     0.649187031
8.365                0.726723695     0.646024534
8.376                0.729523962      0.64284666
8.387                0.732311084     0.639653371
8.398                0.735085044     0.636444626
8.409                0.737845819     0.633220386
8.42                 0.740593388     0.629980607
8.431                0.743327728     0.626725244
8.442                0.746048813     0.623454253
8.453                0.748756618     0.620167586
8.464                0.751451114     0.616865193
8.475                0.754132274     0.613547025
8.486                0.756800065     0.610213028
8.497                0.759454457     0.606863149
8.508                0.762095416     0.603497333
8.519                0.764722907     0.600115522
8.53                 0.767336893     0.596717657
8.541                0.769937338     0.593303678
8.552                0.772524201     0.589873521
8.563                0.775097442     0.586427122
8.574                0.777657018     0.582964415
8.585                0.780202885     0.579485332
8.596                0.782734998     0.575989803
8.607                0.785253309     0.572477756
8.618                0.787757769     0.568949117
8.629                0.790248327      0.56540381
8.64                 0.792724932     0.561841757
8.651                0.795187529     0.558262877
8.662                0.797636062      0.55466709
8.673                0.800070474      0.55105431
8.684                0.802490705     0.547424451
8.695                0.804896694     0.543777424
8.706                0.807288377     0.540113138
8.717                0.809665691     0.536431501
8.728                0.812028566     0.532732415
8.739                0.814376935     0.529015784
8.75                 0.816710725     0.525281506
8.761                0.819029864      0.52152948
8.772                0.821334277     0.517759598
8.783                0.823623884     0.513971753
8.794                0.825898608     0.510165835
8.805                0.828158365      0.50634173
8.816                 0.83040307     0.502499321
8.827                0.832632637     0.498638489
8.838                0.834846977     0.494759114
8.849                0.837045997     0.490861069
8.86                 0.839229603     0.486944227
8.871                0.841397697     0.483008457
8.882                0.843550181     0.479053625
8.893                 0.84568695     0.475079594
8.904                0.847807899     0.471086224
8.915                0.849912921     0.467073371
8.926                0.852001902     0.463040888
8.937                0.854074729     0.458988623
8.948                0.856131284     0.454916424
8.959                0.858171446     0.450824132
8.97                 0.860195089     0.446711586
8.981                0.862202087     0.442578621
8.992                0.864192307     0.438425067
9.003                0.866165614     0.434250752
9.014                 0.86812187     0.430055498
9.025                0.870060932     0.425839125
9.036                0.871982651     0.421601446
9.047                0.873886879     0.417342273
9.058                0.875773458      0.41306141
9.069                0.877642231      0.40875866
9.08                 0.879493031     0.404433819
9.091                0.881325692     0.400086678
9.102                0.883140038     0.395717026
9.113                0.884935891     0.391324643
9.124                0.886713069     0.386909308
9.135                 0.88847138     0.382470791
9.146                0.890210632      0.37800886
9.157                0.891930624     0.373523276
9.168                0.893631151     0.369013793
9.179                0.895311999     0.364480163
9.19                 0.896972951     0.359922128
9.201                0.898613784     0.355339427
9.212                0.900234264     0.350731792
9.223                0.901834155     0.346098948
9.234                 0.90341321     0.341440614
9.245                0.904971179     0.336756503
9.256                  0.9065078      0.33204632
9.267                0.908022805     0.327309765
9.278                0.909515919     0.322546529
9.289                0.910986856     0.317756298
9.3                  0.912435324     0.312938747
9.311                 0.91386102     0.308093546
9.322                0.915263632     0.303220358
9.333                0.916642839     0.298318835
9.344                0.917998309     0.293388624
9.355                0.919329701     0.288429361
9.366                 0.92063666     0.283440675
9.377                0.921918824     0.278422186
9.388                0.923175815     0.273373504
9.399                0.924407248     0.268294231
9.41                 0.925612719     0.263183958
9.421                0.926791817     0.258042269
9.432                0.927944114     0.252868735
9.443                0.929069169     0.247662918
9.454                0.930166525      0.24242437
9.465                0.931235712     0.237152632
9.476                0.932276242     0.231847234
9.487                0.933287612     0.226507695
9.498                0.934269302     0.221133522
9.509                0.935220773      0.21572421
9.52                 0.936141469     0.210279243
9.531                0.937030812     0.204798092
9.542                0.937888207     0.199280214
9.553                0.938713036     0.193725057
9.564                0.939504661     0.188132051
9.575                0.940262419     0.182500616
9.586                0.940985626     0.176830156
9.597                0.941673571     0.171120061
9.608                0.942325519     0.165369708
9.619                0.942940707     0.159578457
9.63                 0.943518344     0.153745655
9.641                0.944057611     0.147870632
9.652                0.944557658     0.141952703
9.663                0.945017603     0.135991165
9.674                0.945436531     0.129985301
9.685                0.945813492     0.123934376
9.696                  0.9461475     0.117837636
9.707                0.946437532     0.111694313
9.718                0.946682523     0.105503619
9.729                 0.94688137    0.0992647473
9.74                 0.947032924    0.0929768736
9.751                0.947135992    0.0866391546
9.762                0.947189333    0.0802507278
9.773                0.947191658    0.0738107112
9.784                0.947141623    0.0673182031
9.795                0.947037834    0.0607722818
9.806                0.946878837    0.0541720054
9.817                0.946663119    0.0475164114
9.828                0.946389104    0.0408045169
9.839                0.946055152    0.0340353181
9.85                 0.945659553    0.0272077901
9.861                0.945200525    0.0203208873
9.872                0.944676212     0.013373543
9.883                0.944084677   0.00636466919
9.894                0.943423899 -0.000706842672
9.905                0.942691773  -0.00784212213
9.916                0.941886098   -0.0150423192
9.927                0.941004579   -0.0223086043
9.938                0.940044819   -0.0296421675
9.949                0.939004314   -0.0370442182
9.96                 0.937880449   -0.0445159845
9.971                0.936670491   -0.0520587126
9.982                0.935371582   -0.0596736652
9.993                0.933980734   -0.0673621212
10.004               0.932494822   -0.0751253741
10.015               0.930910577     -0.08296473
10.026               0.929224577   -0.0908815069
10.037                0.92743324   -0.0988770315
10.048               0.925532814    -0.106952638
10.059               0.923519373    -0.115109664
10.07                  0.9213888     -0.12334945
10.081               0.919136781    -0.131673332
10.092               0.916758795    -0.140082643
10.103                 0.9142501    -0.148578702
10.114               0.911605726    -0.157162817
10.125               0.908820454    -0.165836272
10.136                0.90588881    -0.174600324
10.147                0.90280505    -0.183456198
10.158               0.899563141    -0.192405074
10.169               0.896156748    -0.201448084
10.18                0.892579219    -0.210586298
10.191               0.888823564    -0.219820714
10.202               0.884882438    -0.229152245
10.213               0.880748123    -0.238581709
10.224               0.876412506    -0.248109809
10.235               0.871867057    -0.257737116
10.246               0.867102808    -0.267464055
10.257               0.862110329    -0.277290876
10.268               0.856879702    -0.287217638
10.279               0.851400495    -0.297244178
10.29                 0.84566174    -0.307370081
10.301               0.839651895    -0.317594651
10.312               0.833358828    -0.327916872
10.323               0.826769773    -0.338335368
10.334               0.819871312     -0.34884836
10.345               0.812649334    -0.359453614
10.356               0.805089006    -0.370148386
10.367               0.797174743    -0.380929362
10.378               0.788890171    -0.391792593
10.389               0.780218098    -0.402733411
10.4                 0.771140478    -0.413746358
10.411               0.761638386    -0.424825085
10.422               0.751691984    -0.435962253
10.433               0.741280497    -0.447149423
10.444               0.730382191    -0.458376931
10.455                0.71897435    -0.469633753
10.466               0.707033269    -0.480907354
10.477               0.694534247    -0.492183523
10.488               0.681451587    -0.503446199
10.499               0.667758616    -0.514677265
10.51                0.653427711    -0.525856343
10.521               0.638430346    -0.536960554
10.532               0.622737154    -0.547964266
10.543               0.606318021    -0.558838822
10.554               0.589142201    -0.569552245
10.565               0.571178467    -0.580068921
10.576                 0.5523953    -0.590349269
10.587               0.532761129    -0.600349377
10.598               0.512244612    -0.610020642
10.609               0.490814997    -0.619309375
10.62                0.468442528    -0.628156413
10.631               0.445098953    -0.636496718
10.642                0.42075811    -0.644258987
10.653               0.395396606    -0.651365272
10.664               0.368994623    -0.657730639
10.675               0.341536827    -0.663262858
10.686               0.313013409    -0.667862179
10.697               0.283421271    -0.671421182
10.708               0.252765334    -0.673824756
10.719               0.221060001    -0.674950234
10.73                0.188330743    -0.674667717
10.741               0.154615809    -0.672840636
10.752               0.119968038    -0.669326596
10.763              0.0844567302    -0.663978552
10.774              0.0481695401    -0.656646363
10.785              0.0112143236    -0.647178772
10.796             -0.0262791377     -0.63542585
10.807             -0.0641576346    -0.621241931
10.818              -0.102243363     -0.60448905
10.829              -0.140333224    -0.585040864
10.84               -0.178198726    -0.562787018
10.851              -0.215586642    -0.537637868
10.862              -0.252220561    -0.509529437
10.873               -0.28780344    -0.478428435
10.884              -0.322021275     -0.44433713
10.895              -0.354547908    -0.407297796
10.9                -0.368683824    -0.389508763
10.906               -0.38505096    -0.367396487
10.917              -0.413198797    -0.324765798
10.928              -0.438668336    -0.279586355
10.939              -0.461153425     -0.23208677
10.95                -0.48037346    -0.182541871
10.961              -0.496081802    -0.131269109
10.972              -0.508073583   -0.0786231661
10.983              -0.516192423    -0.024988893
10.994              -0.520335678    0.0292271593
11.005              -0.520457867    0.0836062341
11.016              -0.516572081     0.137727437
11.027              -0.508749275     0.191177875
11.038              -0.497115495      0.24356235
11.049              -0.481847247     0.294512152
11.06               -0.463165293     0.343692543
11.071              -0.441327277      0.39080866
11.082              -0.416619606     0.435609661
11.093              -0.389349026     0.477891086
11.104               -0.35983432     0.517495481
11.115              -0.328398462     0.554311478
11.126              -0.295361533     0.588271546
11.137              -0.261034577     0.619348685
11.148              -0.225714529     0.647552364
11.159              -0.189680241     0.672923979
11.17               -0.153189591     0.695532073
11.181              -0.116477591      0.71546756
11.192             -0.0797553945      0.73283911
11.203             -0.0432100666     0.747768836
11.214            -0.00700498155     0.760388373
11.225               0.028719284       0.7708354
11.236              0.0638436925     0.779250641
11.247               0.098269233     0.785775315
11.258               0.131915254     0.790549051
11.269               0.164717717      0.79370821
11.28                0.196627448     0.795384579
11.291               0.227608415     0.795704399
11.302               0.257636095      0.79478768
11.313               0.286695931     0.792747751
11.324               0.314781908     0.789691018
11.335               0.341895261     0.785716876
11.346               0.368043296     0.780917757
11.357               0.393238351     0.775379275
11.368               0.417496866      0.76918045
11.379               0.440838576     0.762393984
11.39                  0.4632858     0.755086571
11.401               0.484862834     0.747319243
11.412               0.505595425     0.739147714
11.423               0.525510329     0.730622735
11.434               0.544634931     0.721790443
11.445               0.562996932     0.712692707
11.456               0.580624087     0.703367451
11.467               0.597543988     0.693848973
11.478               0.613783892      0.68416824
11.489               0.629370574     0.674353168
11.5                 0.644330223     0.664428887
11.511               0.658688353     0.654417981
11.522               0.672469736     0.644340716
11.533               0.685698358     0.634215247
11.544               0.698397389     0.624057816
11.555               0.710589159     0.613882921
11.566               0.722295152     0.603703485
11.577               0.733536006        0.593531
11.588               0.744331519     0.583375666
11.599               0.754700659     0.573246511
11.61                0.764661581     0.563151507
11.621               0.774231651     0.553097672
11.632               0.783427461      0.54309116
11.643                0.79226486     0.533137349
11.654               0.800758972     0.523240919
11.665                0.80892423     0.513405916
11.676               0.816774398     0.503635822
11.687                 0.8243226     0.493933606
11.698               0.831581345     0.484301781
11.709               0.838562555     0.474742448
11.72                0.845277591     0.465257339
11.731               0.851737277     0.455847855
11.742               0.857951927     0.446515103
11.753               0.863931367     0.437259922
11.764               0.869684959      0.42808292
11.775               0.875221624      0.41898449
11.786               0.880549862      0.40996484
11.797               0.885677774     0.401024012
11.808               0.890613079     0.392161898
11.819               0.895363139     0.383378262
11.83                0.899934968     0.374672751
11.841               0.904335257     0.366044912
11.852               0.908570386     0.357494203
11.863               0.912646441     0.349020003
11.874               0.916569228     0.340621626
11.885               0.920344289     0.332298325
11.896               0.923976912     0.324049303
11.907               0.927472146     0.315873724
11.918               0.930834813     0.307770711
11.929               0.934069519     0.299739359
11.94                0.937180664     0.291778739
11.951               0.940172452       0.2838879
11.962               0.943048903     0.276065877
11.973                0.94581386     0.268311693
11.984               0.948470999      0.26062436
11.995               0.951023835     0.253002888
12.006               0.953475733     0.245446283
12.017               0.955829915     0.237953549
12.028               0.958089462     0.230523695
12.039               0.960257328     0.223155731
12.05                0.962336342     0.215848675
12.061               0.964329213     0.208601549
12.072               0.966238541     0.201413386
12.083               0.968066814     0.194283226
12.094               0.969816422     0.187210123
12.105               0.971489656     0.180193137
12.116               0.973088715     0.173231345
12.127               0.974615707     0.166323833
12.138               0.976072659     0.159469702
12.149               0.977461516     0.152668066
12.16                0.978784147     0.145918053
12.171               0.980042346     0.139218805
12.182               0.981237839     0.132569478
12.193               0.982372285     0.125969244
12.204               0.983447278     0.119417289
12.215               0.984464354     0.112912812
12.226               0.985424987      0.10645503
12.237               0.986330597     0.100043173
12.248               0.987182554    0.0936764849
12.259               0.987982171    0.0873542266
12.27                0.988730719    0.0810756721
12.281               0.989429417    0.0748401103
12.292               0.990079443    0.0686468443
12.303               0.990681931    0.0624951917
12.314               0.991237975    0.0563844842
12.325                0.99174863    0.0503140671
12.336               0.992214911    0.0442832997
12.347               0.992637802    0.0382915547
12.358               0.993018249    0.0323382183
12.369               0.993357166    0.0264226895
12.38                0.993655435    0.0205443806
12.391                0.99391391    0.0147027162
12.402               0.994133413   0.00889713377
12.413               0.994314741   0.00312708269
12.424               0.994458661  -0.00260797545
12.435               0.994565917  -0.00830856733
12.446               0.994637228    -0.013975208
12.457               0.994673289   -0.0196084013
12.468               0.994674772   -0.0252086397
12.479               0.994642327    -0.030776405
12.49                0.994576584   -0.0363121682
12.501               0.994478151   -0.0418163899