! TOUCHSTONE file generated by CST MICROWAVE STUDIO
! Date and time: Mon Jan 20 16:13:10 2025
! Project name: unitcell.cst
! Parameters = {A=1.2476; AB_sqInv=0.642193; B=0.025494; C0=2.097; Cj=0.302904; Cp=0.075; Ct=0.377268; ImZ=-42.1862; L=10; L1=0.3; Lp=0.35; Lpad=0.75; M=1.199; R=5.41; ReZ=3.47426; Rt=3.47426; V=12; Vj=2.984; W=10; W1=-0.15; W2=-0.15; Wcoop=3.29; Wgap=1; Wline=1.42; Wpad=0.475; Wpadgap=0.35; Xpad1=1.6225; Xpad2=0.7975; Xpad3=1.6225; Xpad4=0.7975; Xvar_centre=1.21; f=0.01; f0=11; fmax=11.25; fmin=10.75; h=0.8; phi=0; th=0.035; theta=0}
! Header version: 2024
! Port assignment regex: !\s*Touchstone port\s*([0-9]+)\s*=\s*(CST MWS port|CST DES external port|CST DES block port)\s*(.+)\s* \(\"(.*)\"\)(\s*mode\s*([0-9]+))?.*
! Touchstone port assignment:
! Touchstone port 1 = CST MWS port Zmax ("") mode 1
! S-Parameters are not renormalized. Unphysical impedance of 0 will be written to the file.
# GHz S RI R 0
6                   -0.310306749    0.0737591634
6.011               -0.334358237     0.106627827
6.022               -0.355165034     0.140229427
6.033               -0.372827987     0.174200115
6.044               -0.387487038     0.208216194
6.055               -0.399311252     0.241996266
6.066                -0.40848965      0.27530135
6.077               -0.415223142     0.307933419
6.088               -0.419717692     0.339732793
6.099               -0.422178764     0.370574786
6.11                -0.422806969     0.400365937
6.121               -0.421794823     0.429040096
6.132                -0.41932446     0.456554565
6.143               -0.415566147     0.482886432
6.154               -0.410677468     0.508029185
6.165               -0.404803015     0.531989667
6.176                -0.39807448     0.554785385
6.187               -0.390611037      0.57644217
6.198               -0.382519918      0.59699218
6.209               -0.373897133     0.616472208
6.22                -0.364828258      0.63492228
6.231               -0.355389263     0.652384498
6.242               -0.345647335     0.668902099
6.253               -0.335661697     0.684518704
6.264               -0.325484375     0.699277722
6.275               -0.315160931     0.713221893
6.286               -0.304731141     0.726392935
6.297               -0.294229624     0.738831286
6.308               -0.283686412     0.750575919
6.319               -0.273127468     0.761664221
6.33                 -0.26257516     0.772131915
6.341                -0.25204868     0.782013025
6.352                -0.24156442     0.791339866
6.363               -0.231136315     0.800143063
6.374               -0.220776136     0.808451584
6.385               -0.210493765     0.816292785
6.396               -0.200297421     0.823692469
6.407                -0.19019388     0.830674945
6.418               -0.180188652     0.837263099
6.429               -0.170286146     0.843478456
6.44                -0.160489816     0.849341256
6.451               -0.150802282     0.854870521
6.462               -0.141225447     0.860084121
6.473               -0.131760593     0.864998842
6.484               -0.122408463     0.869630451
6.495               -0.113169342     0.873993752
6.506               -0.104043119     0.878102654
6.517              -0.0950293461     0.881970217
6.528              -0.0861272894     0.885608712
6.539              -0.0773359726     0.889029666
6.55               -0.0686542166     0.892243914
6.561              -0.0600806725     0.895261637
6.572              -0.0516138514     0.898092411
6.583              -0.0432521502      0.90074524
6.594              -0.0349938739     0.903228597
6.605              -0.0268372551     0.905550455
6.616              -0.0187804708      0.90771832
6.627               -0.010821657     0.909739261
6.638             -0.00295892166     0.911619941
6.649              0.00480964489     0.913366636
6.66                0.0124859601     0.914985267
6.671               0.0200719413     0.916481417
6.682               0.0275694989     0.917860358
6.693               0.0349805305     0.919127063
6.704               0.0423069157     0.920286231
6.715               0.0495505124     0.921342303
6.726               0.0567131527     0.922299476
6.737               0.0637966407     0.923161718
6.748               0.0708027493     0.923932784
6.759               0.0777332192     0.924616229
6.77                0.0845897567     0.925215419
6.781               0.0913740328      0.92573354
6.792               0.0980876823     0.926173614
6.803                0.104732303     0.926538507
6.814                0.111309457     0.926830934
6.825                0.117820666     0.927053474
6.836                0.124267418     0.927208574
6.847                 0.13065116     0.927298558
6.858                0.136973306     0.927325634
6.869                0.143235229     0.927291901
6.88                 0.149438269     0.927199354
6.891                0.155583729      0.92704989
6.902                0.161672877     0.926845316
6.913                0.167706947      0.92658735
6.924                0.173687138      0.92627763
6.935                0.179614616     0.925917715
6.946                0.185490514     0.925509092
6.957                0.191315936     0.925053176
6.968                0.197091952      0.92455132
6.979                0.202819602     0.924004813
6.99                 0.208499898     0.923414884
7.001                0.214133821     0.922782709
7.012                0.219722326     0.922109408
7.023                 0.22526634     0.921396054
7.034                0.230766763     0.920643672
7.045                 0.23622447     0.919853239
7.056                0.241640309     0.919025692
7.067                0.247015106     0.918161927
7.078                0.252349662     0.917262801
7.089                0.257644755     0.916329134
7.1                   0.26290114     0.915361713
7.111                0.268119552     0.914361288
7.122                0.273300704     0.913328582
7.133                0.278445287     0.912264285
7.144                0.283553975     0.911169059
7.155                0.288627421     0.910043539
7.166                 0.29366626     0.908888334
7.177                0.298671107      0.90770403
7.188                0.303642562     0.906491185
7.199                0.308581206      0.90525034
7.21                 0.313487605      0.90398201
7.221                0.318362308     0.902686693
7.232                0.323205847     0.901364865
7.243                0.328018742     0.900016985
7.254                0.332801496     0.898643492
7.265                0.337554599     0.897244811
7.276                0.342278525     0.895821349
7.287                0.346973739     0.894373497
7.298                0.351640687     0.892901631
7.309                0.356279809     0.891406116
7.32                 0.360891526     0.889887298
7.331                0.365476253     0.888345514
7.342                 0.37003439     0.886781088
7.353                0.374566327      0.88519433
7.364                0.379072443      0.88358554
7.375                0.383553106     0.881955008
7.386                0.388008674     0.880303011
7.397                0.392439496     0.878629817
7.408                 0.39684591     0.876935685
7.419                0.401228246     0.875220863
7.43                 0.405586824     0.873485593
7.441                0.409921954     0.871730104
7.452                 0.41423394     0.869954622
7.463                0.418523076     0.868159359
7.474                0.422789648     0.866344525
7.485                0.427033935      0.86451032
7.496                0.431256208     0.862656936
7.507                0.435456729      0.86078456
7.518                0.439635755     0.858893371
7.529                0.443793536     0.856983544
7.54                 0.447930312     0.855055245
7.551                0.452046321     0.853108636
7.562                 0.45614179     0.851143873
7.573                0.460216943     0.849161106
7.584                0.464271997      0.84716048
7.595                0.468307163     0.845142135
7.606                0.472322645     0.843106207
7.617                0.476318643     0.841052826
7.628                 0.48029535     0.838982117
7.639                0.484252956     0.836894202
7.65                 0.488191643     0.834789199
7.661                0.492111591     0.832667219
7.672                0.496012971     0.830528373
7.683                0.499895954     0.828372765
7.694                0.503760702     0.826200496
7.705                0.507607375     0.824011665
7.716                0.511436128     0.821806365
7.727                0.515247111     0.819584687
7.738                0.519040471     0.817346719
7.749                 0.52281635     0.815092546
7.76                 0.526574886     0.812822247
7.771                0.530316212     0.810535901
7.782                0.534040461     0.808233584
7.793                0.537747757     0.805915368
7.804                0.541438225     0.803581322
7.815                0.545111983     0.801231512
7.826                0.548769148     0.798866004
7.837                0.552409832     0.796484859
7.848                0.556034145     0.794088135
7.859                0.559642192     0.791675891
7.87                 0.563234076     0.789248178
7.881                0.566809897     0.786805051
7.892                0.570369752     0.784346558
7.903                0.573913734     0.781872747
7.914                0.577441934     0.779383663
7.925                0.580954441     0.776879349
7.936                0.584451339     0.774359847
7.947                0.587932711     0.771825196
7.958                0.591398636     0.769275432
7.969                0.594849193     0.766710591
7.98                 0.598284455     0.764130705
7.991                0.601704496     0.761535808
8.002                0.605109383     0.758925927
8.013                0.608499186      0.75630109
8.024                0.611873969     0.753661324
8.035                0.615233794     0.751006653
8.046                0.618578721     0.748337098
8.057                 0.62190881     0.745652682
8.068                0.625224115     0.742953422
8.079                0.628524691     0.740239336
8.09                 0.631810589      0.73751044
8.101                0.635081859     0.734766748
8.112                0.638338548     0.732008273
8.123                0.641580702     0.729235026
8.134                0.644808364     0.726447015
8.145                0.648021576      0.72364425
8.156                0.651220377     0.720826735
8.167                0.654404805     0.717994477
8.178                0.657574897     0.715147478
8.189                0.660730685     0.712285739
8.2                  0.663872202     0.709409263
8.211                0.666999479     0.706518046
8.222                0.670112544     0.703612087
8.233                0.673211424     0.700691382
8.244                0.676296144     0.697755924
8.255                0.679366727     0.694805707
8.266                0.682423195     0.691840722
8.277                0.685465569      0.68886096
8.288                0.688493866     0.685866408
8.299                0.691508103     0.682857055
8.31                 0.694508295     0.679832885
8.321                0.697494456     0.676793884
8.332                0.700466598     0.673740033
8.343                 0.70342473     0.670671314
8.354                0.706368861     0.667587707
8.365                0.709298998      0.66448919
8.376                0.712215147      0.66137574
8.387                0.715117312     0.658247333
8.398                0.718005494     0.655103942
8.409                0.720879696     0.651945541
8.42                 0.723739915     0.648772099
8.431                0.726586149     0.645583586
8.442                0.729418395      0.64237997
8.453                0.732236648     0.639161218
8.464                0.735040899     0.635927294
8.475                0.737831142     0.632678161
8.486                0.740607364     0.629413782
8.497                0.743369556     0.626134116
8.508                0.746117703     0.622839121
8.519                0.748851791     0.619528754
8.53                 0.751571804     0.616202971
8.541                0.754277724     0.612861725
8.552                0.756969531     0.609504968
8.563                0.759647204     0.606132649
8.574                 0.76231072     0.602744718
8.585                0.764960056      0.59934112
8.596                0.767595185     0.595921802
8.607                 0.77021608     0.592486705
8.618                0.772822712      0.58903577
8.629                0.775415049     0.585568939
8.64                  0.77799306     0.582086147
8.651                0.780556709      0.57858733
8.662                0.783105962     0.575072423
8.673                 0.78564078     0.571541357
8.684                0.788161124     0.567994061
8.695                0.790666953     0.564430463
8.706                0.793158223     0.560850489
8.717                 0.79563489     0.557254062
8.728                0.798096908     0.553641105
8.739                0.800544227     0.550011535
8.75                 0.802976797      0.54636527
8.761                0.805394566     0.542702225
8.772                0.807797478     0.539022313
8.783                0.810185478     0.535325443
8.794                0.812558508     0.531611523
8.805                0.814916506      0.52788046
8.816                 0.81725941     0.524132154
8.827                0.819587154     0.520366508
8.838                0.821899673     0.516583419
8.849                0.824196896     0.512782783
8.86                 0.826478752     0.508964491
8.871                0.828745167     0.505128434
8.882                0.830996063     0.501274499
8.893                0.833231364      0.49740257
8.904                0.835450986     0.493512529
8.915                0.837654847     0.489604255
8.926                0.839842859     0.485677622
8.937                0.842014934     0.481732504
8.948                0.844170978     0.477768769
8.959                0.846310898     0.473786284
8.97                 0.848434596     0.469784913
8.981                 0.85054197     0.465764513
8.992                0.852632917     0.461724942
9.003                0.854707331     0.457666052
9.014                  0.8567651     0.453587693
9.025                0.858806112      0.44948971
9.036                0.860830249     0.445371944
9.047                0.862837392     0.441234235
9.058                0.864827416     0.437076416
9.069                0.866800195     0.432898316
9.08                 0.868755596     0.428699764
9.091                0.870693484     0.424480579
9.102                 0.87261372     0.420240581
9.113                0.874516161     0.415979583
9.124                0.876400659     0.411697393
9.135                0.878267062     0.407393817
9.146                0.880115213     0.403068653
9.157                0.881944952     0.398721697
9.168                0.883756112      0.39435274
9.179                0.885548522     0.389961566
9.19                 0.887322007     0.385547955
9.201                0.889076384     0.381111683
9.212                0.890811468     0.376652519
9.223                0.892527066     0.372170227
9.234                 0.89422298     0.367664565
9.245                0.895899006     0.363135286
9.256                0.897554932     0.358582137
9.267                0.899190544     0.354004859
9.278                0.900805617     0.349403187
9.289                0.902399921     0.344776847
9.3                  0.903973219     0.340125564
9.311                0.905525266     0.335449051
9.322                 0.90705581     0.330747017
9.333                0.908564592     0.326019163
9.344                0.910051343     0.321265184
9.355                0.911515787     0.316484767
9.366                0.912957639     0.311677591
9.377                0.914376604     0.306843327
9.388                0.915772379     0.301981639
9.399                0.917144651     0.297092184
9.41                 0.918493096     0.292174609
9.421                0.919817381     0.287228552
9.432                0.921117161     0.282253644
9.443                0.922392082     0.277249506
9.454                0.923641774     0.272215751
9.465                 0.92486586      0.26715198
9.476                0.926063946     0.262057788
9.487                0.927235629     0.256932757
9.498                0.928380489     0.251776461
9.509                0.929498094     0.246588462
9.52                 0.930587998     0.241368313
9.531                0.931649736     0.236115555
9.542                0.932682832     0.230829717
9.553                0.933686791     0.225510319
9.564                0.934661101     0.220156867
9.575                0.935605232     0.214768856
9.586                0.936518637      0.20934577
9.597                0.937400748     0.203887076
9.608                0.938250978     0.198392233
9.619                0.939068718     0.192860684
9.63                 0.939853339      0.18729186
9.641                0.940604187     0.181685175
9.652                0.941320586     0.176040033
9.663                0.942001834      0.17035582
9.674                0.942647206     0.164631909
9.685                0.943255946     0.158867656
9.696                0.943827273     0.153062403
9.707                0.944360375     0.147215475
9.718                0.944854412     0.141326182
9.729                0.945308508     0.135393815
9.74                 0.945721757     0.129417649
9.751                0.946093217     0.123396942
9.762                0.946421909     0.117330933
9.773                0.946706817     0.111218845
9.784                0.946946885     0.105059879
9.795                0.947141013    0.0988532193
9.806                0.947288061    0.0925980308
9.817                0.947386842     0.086293458
9.828                0.947436119    0.0799386256
9.839                0.947434607    0.0735326378
9.85                 0.947380969    0.0670745783
9.861                0.947273812    0.0605635097
9.872                0.947111686     0.053998473
9.883                0.946893079    0.0473784879
9.894                0.946616417    0.0407025521
9.905                0.946280061    0.0339696413
9.916                0.945882299     0.027178709
9.927                0.945421347    0.0203286861
9.938                0.944895345     0.013418481
9.949                0.944302352   0.00644697989
9.96                 0.943640342 -0.000586954028
9.971                0.942907199  -0.00768447978
9.982                0.942100714   -0.0148467788
9.993                0.941218579   -0.0220750545
10.004               0.940258384   -0.0293705322
10.015               0.939217607   -0.0367344585
10.026               0.938093615   -0.0441681007
10.037                0.93688365   -0.0516727461
10.048               0.935584831   -0.0592497014
10.059               0.934194139   -0.0669002912
10.07                0.932708417   -0.0746258574
10.081               0.931124358    -0.082427757
10.092               0.929438499   -0.0903073613
10.103                0.92764721    -0.098266053
10.114               0.925746688    -0.106305225
10.125               0.923732947    -0.114426276
10.136               0.921601806    -0.122630611
10.147                0.91934888    -0.130919634
10.158               0.916969567    -0.139294746
10.169               0.914459037     -0.14775734
10.18                0.911812222    -0.156308797
10.191               0.909023796    -0.164950481
10.202               0.906088168     -0.17368373
10.213               0.902999462     -0.18250985
10.224               0.899751502    -0.191430108
10.235               0.896337796    -0.200445723
10.246               0.892751519    -0.209557854
10.257               0.888985492     -0.21876759
10.268               0.885032162    -0.228075935
10.279               0.880883585    -0.237483799
10.29                0.876531397    -0.246991975
10.301               0.871966798    -0.256601128
10.312               0.867180522    -0.266311767
10.323               0.862162813    -0.276124231
10.334                 0.8569034    -0.286038657
10.345               0.851391465    -0.296054956
10.356               0.845615616    -0.306172782
10.367               0.839563854    -0.316391493
10.378               0.833223545    -0.326710118
10.389                0.82658138    -0.337127309
10.4                 0.819623349    -0.347641294
10.411               0.812334698    -0.358249826
10.422               0.804699898     -0.36895012
10.433               0.796702606    -0.379738789
10.444                0.78832563    -0.390611768
10.455               0.779550892    -0.401564234
10.466               0.770359389    -0.412590514
10.477               0.760731161    -0.423683985
10.488               0.750645259    -0.434836961
10.499               0.740079711     -0.44604057
10.51                0.729011498    -0.457284618
10.521               0.717416532    -0.468557437
10.532               0.705269637    -0.479845717
10.543                0.69254455    -0.491134323
10.554               0.679213916    -0.502406097
10.565                0.66524931    -0.513641632
10.576               0.650621264     -0.52481903
10.587               0.635299326    -0.535913643
10.598               0.619252124     -0.54689778
10.609               0.602447477    -0.557740402
10.62                0.584852528     -0.56840678
10.631               0.566433918    -0.578858144
10.642               0.547158007    -0.589051293
10.653               0.526991151    -0.598938194
10.664               0.505900042    -0.608465558
10.675               0.483852118    -0.617574397
10.686               0.460816058     -0.62619958
10.697               0.436762372    -0.634269379
10.708               0.411664101    -0.641705024
10.719               0.385497632    -0.648420294
10.73                0.358243646    -0.654321124
10.741                0.32988821    -0.659305301
10.752               0.300424027    -0.663262223
10.763               0.269851836    -0.666072796
10.774               0.238181983    -0.667609483
10.785               0.205436156    -0.667736546
10.796               0.171649263    -0.666310553
10.807               0.136871445    -0.663181176
10.818               0.101170187    -0.658192358
10.829              0.0646324736    -0.651183899
10.84               0.0273669241    -0.641993519
10.851             -0.0104941742    -0.630459458
10.862              -0.048793055    -0.616423632
10.873             -0.0873450091    -0.599735388
10.884              -0.125937422    -0.580255841
10.895              -0.164329478    -0.557862739
10.9                -0.181642554     -0.54669282
10.906              -0.202252713    -0.532455793
10.917              -0.239412583    -0.503962303
10.928              -0.275491197    -0.472342915
10.939              -0.310151352    -0.437597224
10.95               -0.343041903    -0.399768939
10.961              -0.373804482    -0.358950266
10.972               -0.40208143    -0.315285128
10.983              -0.427524739    -0.268970891
10.994              -0.449805678    -0.220258272
11.005              -0.468624672    -0.169449205
11.016              -0.483720938    -0.116892554
11.027              -0.494881323   -0.0629776958
11.038              -0.501947818  -0.00812615627
11.049              -0.504823246    0.0472183514
11.06               -0.503474757     0.102601023
11.071              -0.497934879     0.157567614
11.082              -0.488300064     0.211676024
11.093              -0.474726837     0.264507201
11.104              -0.457425831     0.315674821
11.115                -0.4366541     0.364833284
11.126               -0.41270623     0.411683746
11.137              -0.385904767     0.455978029
11.148              -0.356590515     0.497520423
11.159               -0.32511316     0.536167509
11.17               -0.291822639     0.571826269
11.181              -0.257061532     0.604450781
11.192              -0.221158673     0.634037848
11.203              -0.184424071     0.660621928
11.214              -0.147145127     0.684269677
11.225              -0.109584094     0.705074395
11.236             -0.0719766383     0.723150615
11.247             -0.0345313671     0.738629012
11.258             0.00256986023     0.751651755
11.269              0.0391709926      0.76236838
11.28               0.0751403854     0.770932222
11.291               0.110369076     0.777497404
11.302               0.144768861     0.782216369
11.313               0.178270276      0.78523791
11.324               0.210820558     0.786705647
11.335               0.242381654     0.786756905
11.346               0.272928324     0.785521929
11.357               0.302446362     0.783123388
11.368               0.330930956     0.779676114
11.379               0.358385204     0.775287027
11.39                0.384818778     0.770055217
11.401               0.410246739     0.764072132
11.412               0.434688492      0.75742186
11.423               0.458166885     0.750181462
11.434               0.480707415     0.742421352
11.445               0.502337561     0.734205695
11.456               0.523086207     0.725592821
11.467               0.542983164     0.716635633
11.478               0.562058759     0.707382016
11.489               0.580343506     0.697875226
11.5                 0.597867825     0.688154264
11.511               0.614661825     0.678254237
11.522               0.630755117     0.668206688
11.533               0.646176678     0.658039915
11.544               0.660954742     0.647779258
11.555               0.675116714     0.637447371
11.566               0.688689116     0.627064473
11.577               0.701697542     0.616648573
11.588               0.714166635     0.606215687
11.599               0.726120076     0.595780024
11.61                0.737580583     0.585354162
11.621               0.748569917     0.574949212
11.632               0.759108896      0.56457496
11.643               0.769217415     0.554239999
11.654               0.778914468      0.54395185
11.665               0.788218176     0.533717067
11.676               0.797145817     0.523541343
11.687               0.805713851     0.513429588
11.698               0.813937955     0.503386018
11.709               0.821833056     0.493414224
11.72                0.829413359     0.483517237
11.731                0.83669238     0.473697587
11.742               0.843682978     0.463957358
11.753               0.850397384     0.454298234
11.764               0.856847231     0.444721544
11.775               0.863043583     0.435228299
11.786               0.868996965     0.425819228
11.797               0.874717386     0.416494811
11.808               0.880214365     0.407255305
11.819               0.885496959      0.39810077
11.83                0.890573785     0.389031093
11.841                0.89545304      0.38004601
11.852               0.900142527      0.37114512
11.863               0.904649672     0.362327906
11.874               0.908981543     0.353593749
11.885               0.913144874     0.344941941
11.896               0.917146075     0.336371695
11.907               0.920991253      0.32788216
11.918               0.924686227     0.319472428
11.929               0.928236545     0.311141543
11.94                0.931647492      0.30288851
11.951                0.93492411     0.294712299
11.962               0.938071208     0.286611856
11.973               0.941093375     0.278586103
11.984               0.943994987     0.270633947
11.995               0.946780226     0.262754284
12.006               0.949453081        0.254946
12.017               0.952017364     0.247207979
12.028               0.954476717     0.239539101
12.039               0.956834621      0.23193825
12.05                0.959094402     0.224404311
12.061               0.961259242     0.216936176
12.072               0.963332184     0.209532746
12.083               0.965316139     0.202192929
12.094               0.967213895     0.194915646
12.105                0.96902812     0.187699828
12.116               0.970761367     0.180544419
12.127               0.972416084     0.173448379
12.138               0.973994617      0.16641068
12.149               0.975499212     0.159430312
12.16                0.976932025     0.152506277
12.171               0.978295123     0.145637597
12.182               0.979590487     0.138823309
12.193                0.98082002     0.132062467
12.204               0.981985548     0.125354141
12.215               0.983088824      0.11869742
12.226               0.984131532     0.112091409
12.237                0.98511529      0.10553523
12.248               0.986041651    0.0990280235
12.259                0.98691211     0.092568946
12.27                0.987728103    0.0861571717
12.281               0.988491012    0.0797918915
12.292               0.989202165    0.0734723134
12.303               0.989862842    0.0671976617
12.314               0.990474273    0.0609671777
12.325               0.991037643    0.0547801183
12.336               0.991554094    0.0486357571
12.347               0.992024724     0.042533383
12.358               0.992450594    0.0364723008
12.369               0.992832723    0.0304518305
12.38                0.993172097    0.0244713073
12.391               0.993469664     0.018530081
12.402                0.99372634    0.0126275161
12.413               0.993943007   0.00676299143
12.424               0.994120518  0.000935899692
12.435               0.994259697  -0.00485435262
12.446               0.994361336   -0.0106083455
12.457               0.994426203   -0.0163266459
12.468               0.994455039   -0.0220098077
12.479               0.994448559   -0.0276583722
12.49                0.994407457   -0.0332728683
12.501               0.994332401   -0.0388538128