! TOUCHSTONE file generated by CST MICROWAVE STUDIO
! Date and time: Mon Jan 20 16:13:10 2025
! Project name: unitcell.cst
! Parameters = {A=1.26755; AB_sqInv=0.622153; B=0.025494; C0=2.097; Cj=0.280326; Cp=0.075; Ct=0.35479; ImZ=-44.8589; L=10; L1=0.3; Lp=0.35; Lpad=0.75; M=1.199; R=5.41; ReZ=3.36585; Rt=3.36585; V=13; Vj=2.984; W=10; W1=-0.15; W2=-0.15; Wcoop=3.29; Wgap=1; Wline=1.42; Wpad=0.475; Wpadgap=0.35; Xpad1=1.6225; Xpad2=0.7975; Xpad3=1.6225; Xpad4=0.7975; Xvar_centre=1.21; f=0.01; f0=11; fmax=11.25; fmin=10.75; h=0.8; phi=0; th=0.035; theta=0}
! Header version: 2024
! Port assignment regex: !\s*Touchstone port\s*([0-9]+)\s*=\s*(CST MWS port|CST DES external port|CST DES block port)\s*(.+)\s* \(\"(.*)\"\)(\s*mode\s*([0-9]+))?.*
! Touchstone port assignment:
! Touchstone port 1 = CST MWS port Zmax ("") mode 1
! S-Parameters are not renormalized. Unphysical impedance of 0 will be written to the file.
# GHz S RI R 0
6                    0.222940013    -0.181915528
6.011                0.173762764    -0.190082546
6.022                0.123663932    -0.193849573
6.033               0.0732029844    -0.193088143
6.044                0.022959066    -0.187765281
6.055               -0.026489465     -0.17794635
6.066              -0.0745856622    -0.163792672
6.077               -0.120813254     -0.14555409
6.088               -0.164713165    -0.123557154
6.099               -0.205896257   -0.0981899835
6.11                -0.244051637   -0.0698851124
6.121               -0.278950399   -0.0391016771
6.132               -0.310445041   -0.0063082178
6.143               -0.338465167    0.0280328686
6.154               -0.363010303    0.0634784881
6.165               -0.384140722    0.0996152061
6.176                -0.40196719     0.136066689
6.187               -0.416640408     0.172498361
6.198               -0.428340802     0.208619585
6.209               -0.437269119     0.244183769
6.22                -0.443638136     0.278986864
6.231               -0.447665617     0.312864674
6.242               -0.449568579     0.345689402
6.253               -0.449558789     0.377365758
6.264                -0.44783939     0.407826901
6.275               -0.444602529     0.437030441
6.286                -0.44002781     0.464954621
6.297               -0.434281434     0.491594794
6.308               -0.427515875     0.516960244
6.319               -0.419869981     0.541071375
6.33                -0.411469362     0.563957258
6.341               -0.402427005     0.585653537
6.352               -0.392844024     0.606200659
6.363                -0.38281049     0.625642394
6.374               -0.372406308     0.644024623
6.385               -0.361702083     0.661394347
6.396               -0.350759984     0.677798894
6.407               -0.339634558       0.6932853
6.418               -0.328373506     0.707899819
6.429               -0.317018404     0.721687559
6.44                -0.305605363     0.734692208
6.451               -0.294165639     0.746955845
6.462               -0.282726185      0.75851881
6.473               -0.271310149     0.769419628
6.484               -0.259937321     0.779694971
6.495               -0.248624536     0.789379656
6.506               -0.237386032     0.798506661
6.517                -0.22623377     0.807107168
6.528               -0.215177716      0.81521061
6.539                -0.20422609     0.822844738
6.55                -0.193385595     0.830035686
6.561               -0.182661606     0.836808046
6.572               -0.172058345     0.843184941
6.583               -0.161579036     0.849188103
6.594               -0.151226035     0.854837946
6.605               -0.141000953     0.860153642
6.616               -0.130904752     0.865153191
6.627               -0.120937843     0.869853494
6.638               -0.111100163     0.874270413
6.649               -0.101391242     0.878418843
6.66               -0.0918102679     0.882312766
6.671              -0.0823561384     0.885965311
6.682              -0.0730275068     0.889388808
6.693              -0.0638228236     0.892594838
6.704              -0.0547403714     0.895594282
6.715              -0.0457782965     0.898397368
6.726              -0.0369346349     0.901013707
6.737              -0.0282073361     0.903452342
6.748              -0.0195942834     0.905721775
6.759              -0.0110933111     0.907830009
6.77              -0.00270221983     0.909784577
6.781              0.00558121052     0.911592574
6.792               0.0137592096     0.913260683
6.803               0.0218340069     0.914795202
6.814               0.0298078236      0.91620207
6.825                0.037682866     0.917486889
6.836               0.0454613188     0.918654944
6.847               0.0531453411     0.919711226
6.858               0.0607370617     0.920660446
6.869               0.0682385757     0.921507057
6.88                0.0756519422     0.922255268
6.891               0.0829791814     0.922909058
6.902               0.0902222736     0.923472191
6.913               0.0973831571     0.923948231
6.924                0.104463728     0.924340551
6.935                0.111465838     0.924652347
6.946                0.118391296     0.924886646
6.957                0.125241868     0.925046319
6.968                0.132019273     0.925134088
6.979                0.138725189     0.925152536
6.99                  0.14536125     0.925104115
7.001                0.151929047     0.924991153
7.012                0.158430126     0.924815861
7.023                0.164865995     0.924580341
7.034                0.171238119      0.92428659
7.045                0.177547923     0.923936508
7.056                 0.18379679     0.923531904
7.067                0.189986069     0.923074498
7.078                0.196117066     0.922565927
7.089                0.202191053     0.922007753
7.1                  0.208209265     0.921401462
7.111                0.214172901     0.920748472
7.122                0.220083127     0.920050133
7.133                0.225941074     0.919307734
7.144                0.231747842     0.918522506
7.155                0.237504496     0.917695622
7.166                0.243212075     0.916828204
7.177                0.248871584     0.915921321
7.188                0.254484001     0.914975998
7.199                0.260050274     0.913993211
7.21                 0.265571324     0.912973896
7.221                0.271048047     0.911918946
7.232                0.276481311     0.910829217
7.243                 0.28187196     0.909705528
7.254                0.287220813     0.908548662
7.265                0.292528665      0.90735937
7.276                0.297796289     0.906138369
7.287                0.303024435     0.904886349
7.298                0.308213833     0.903603969
7.309                0.313365189     0.902291863
7.32                 0.318479191     0.900950636
7.331                0.323556507      0.89958087
7.342                0.328597786     0.898183124
7.353                0.333603657     0.896757932
7.364                0.338574733     0.895305811
7.375                0.343511608     0.893827252
7.386                0.348414861     0.892322729
7.397                0.353285053       0.8907927
7.408                 0.35812273     0.889237599
7.419                0.362928421     0.887657849
7.43                 0.367702643     0.886053853
7.441                0.372445895        0.884426
7.452                0.377158666     0.882774663
7.463                0.381841427     0.881100201
7.474                0.386494639     0.879402961
7.485                 0.39111875     0.877683274
7.496                0.395714193     0.875941461
7.507                0.400281392     0.874177829
7.518                0.404820757     0.872392676
7.529                0.409332689     0.870586286
7.54                 0.413817575     0.868758934
7.551                0.418275793     0.866910886
7.562                0.422707711     0.865042395
7.573                0.427113687     0.863153709
7.584                0.431494067     0.861245062
7.595                0.435849191     0.859316684
7.606                0.440179386     0.857368794
7.617                0.444484972     0.855401603
7.628                0.448766261     0.853415317
7.639                0.453023555     0.851410131
7.65                 0.457257149     0.849386235
7.661                0.461467329     0.847343812
7.672                0.465654373     0.845283038
7.683                0.469818553     0.843204083
7.694                0.473960132      0.84110711
7.705                0.478079367     0.838992279
7.716                0.482176507      0.83685974
7.727                0.486251795     0.834709641
7.738                0.490305468     0.832542123
7.749                0.494337755     0.830357322
7.76                  0.49834888      0.82815537
7.771                 0.50233906     0.825936394
7.782                0.506308507     0.823700516
7.793                0.510257426     0.821447853
7.804                0.514186019     0.819178519
7.815                0.518094479     0.816892623
7.826                0.521982997     0.814590269
7.837                0.525851755     0.812271561
7.848                0.529700935     0.809936594
7.859                 0.53353071     0.807585464
7.87                  0.53734125     0.805218259
7.881                0.541132719     0.802835068
7.892                0.544905277     0.800435974
7.903                0.548659082     0.798021056
7.914                0.552394283     0.795590392
7.925                0.556111029     0.793144057
7.936                0.559809463     0.790682121
7.947                0.563489724     0.788204653
7.958                0.567151946     0.785711718
7.969                0.570796262     0.783203379
7.98                 0.574422798     0.780679695
7.991                 0.57803168     0.778140725
8.002                0.581623026     0.775586523
8.013                0.585196955     0.773017141
8.024                0.588753578      0.77043263
8.035                0.592293008     0.767833037
8.046                0.595815349     0.765218407
8.057                0.599320706     0.762588784
8.068                0.602809179     0.759944209
8.079                0.606280865     0.757284719
8.09                  0.60973586     0.754610352
8.101                0.613174253     0.751921142
8.112                0.616596135     0.749217121
8.123                0.620001589     0.746498321
8.134                  0.6233907     0.743764769
8.145                0.626763547     0.741016492
8.156                0.630120209     0.738253515
8.167                0.633460759      0.73547586
8.178                 0.63678527     0.732683549
8.189                0.640093812       0.7298766
8.2                  0.643386453     0.727055031
8.211                0.646663256     0.724218858
8.222                0.649924286     0.721368094
8.233                0.653169601     0.718502752
8.244                 0.65639926     0.715622841
8.255                0.659613318     0.712728371
8.266                0.662811828     0.709819349
8.277                0.665994842      0.70689578
8.288                0.669162408     0.703957667
8.299                0.672314574     0.701005014
8.31                 0.675451383      0.69803782
8.321                0.678572879     0.695056084
8.332                0.681679102     0.692059804
8.343                0.684770091     0.689048976
8.354                0.687845881     0.686023593
8.365                0.690906508     0.682983648
8.376                0.693952004     0.679929132
8.387                0.696982399     0.676860035
8.398                0.699997723     0.673776344
8.409                0.702998002     0.670678046
8.42                  0.70598326     0.667565125
8.431                0.708953522     0.664437564
8.442                0.711908807     0.661295346
8.453                0.714849136      0.65813845
8.464                0.717774526     0.654966854
8.475                0.720684993     0.651780536
8.486                 0.72358055      0.64857947
8.497                 0.72646121     0.645363631
8.508                0.729326982     0.642132991
8.519                0.732177876     0.638887519
8.53                 0.735013898     0.635627185
8.541                0.737835053     0.632351956
8.552                0.740641345     0.629061797
8.563                0.743432775     0.625756673
8.574                0.746209342     0.622436546
8.585                0.748971045     0.619101376
8.596                0.751717879     0.615751123
8.607                 0.75444984     0.612385743
8.618                0.757166919     0.609005192
8.629                0.759869108     0.605609423
8.64                 0.762556396     0.602198389
8.651                0.765228771      0.59877204
8.662                0.767886217     0.595330323
8.673                0.770528719     0.591873187
8.684                0.773156259     0.588400574
8.695                0.775768816     0.584912429
8.706                 0.77836637     0.581408691
8.717                0.780948896       0.5778893
8.728                 0.78351637     0.574354193
8.739                0.786068764     0.570803305
8.75                 0.788606049     0.567236569
8.761                0.791128194     0.563653915
8.772                0.793635166     0.560055273
8.783                 0.79612693      0.55644057
8.794                 0.79860345      0.55280973
8.805                0.801064686     0.549162675
8.816                0.803510598     0.545499326
8.827                0.805941143       0.5418196
8.838                0.808356275     0.538123414
8.849                0.810755949      0.53441068
8.86                 0.813140113     0.530681311
8.871                0.815508718     0.526935213
8.882                0.817861709     0.523172293
8.893                0.820199031     0.519392456
8.904                0.822520625     0.515595601
8.915                0.824826431     0.511781628
8.926                0.827116386     0.507950431
8.937                0.829390425     0.504101905
8.948                 0.83164848     0.500235939
8.959                 0.83389048      0.49635242
8.97                 0.836116353     0.492451234
8.981                0.838326023     0.488532262
8.992                0.840519413     0.484595383
9.003                0.842696441     0.480640472
9.014                0.844857023     0.476667401
9.025                0.847001073     0.472676041
9.036                0.849128501     0.468666257
9.047                0.851239215     0.464637911
9.058                 0.85333312     0.460590863
9.069                0.855410116      0.45652497
9.08                 0.857470101     0.452440083
9.091                 0.85951297      0.44833605
9.102                0.861538614     0.444212718
9.113                0.863546921     0.440069926
9.124                0.865537775     0.435907513
9.135                0.867511057     0.431725312
9.146                0.869466643     0.427523152
9.157                0.871404405     0.423300858
9.168                0.873324213     0.419058251
9.179                0.875225932     0.414795148
9.19                  0.87710942      0.41051136
9.201                0.878974535     0.406206696
9.212                0.880821127     0.401880959
9.223                0.882649044     0.397533946
9.234                0.884458128     0.393165451
9.245                0.886248215     0.388775262
9.256                0.888019137     0.384363162
9.267                0.889770722      0.37992893
9.278                0.891502791     0.375472338
9.289                0.893215158     0.370993153
9.3                  0.894907635     0.366491137
9.311                0.896580025     0.361966045
9.322                0.898232125     0.357417627
9.333                0.899863728     0.352845627
9.344                0.901474619     0.348249783
9.355                0.903064575     0.343629825
9.366                0.904633367     0.338985479
9.377                0.906180759     0.334316462
9.388                0.907706508     0.329622486
9.399                0.909210362     0.324903255
9.41                 0.910692061     0.320158466
9.421                0.912151337     0.315387808
9.432                0.913587915     0.310590963
9.443                0.915001507     0.305767606
9.454                 0.91639182     0.300917403
9.465                0.917758549     0.296040012
9.476                0.919101379     0.291135083
9.487                0.920419986     0.286202257
9.498                0.921714034     0.281241167
9.509                0.922983176     0.276251435
9.52                 0.924227054     0.271232677
9.531                0.925445299     0.266184496
9.542                0.926637526     0.261106487
9.553                0.927803341     0.255998235
9.564                0.928942334     0.250859316
9.575                0.930054082     0.245689292
9.586                0.931138148     0.240487718
9.597                0.932194078     0.235254134
9.608                0.933221403     0.229988073
9.619                 0.93421964     0.224689053
9.63                 0.935188286     0.219356582
9.641                 0.93612682     0.213990155
9.652                0.937034706     0.208589253
9.663                0.937911385     0.203153346
9.674                0.938756279     0.197681891
9.685                0.939568792     0.192174331
9.696                0.940348301     0.186630093
9.707                0.941094165     0.181048594
9.718                0.941805718     0.175429231
9.729                0.942482266     0.169771391
9.74                 0.943123095     0.164074444
9.751                0.943727459     0.158337741
9.762                0.944294586     0.152560623
9.773                0.944823677     0.146742409
9.784                0.945313897     0.140882405
9.795                0.945764384     0.134979897
9.806                 0.94617424     0.129034154
9.817                0.946542533     0.123044429
9.828                0.946868293     0.117009953
9.839                0.947150513      0.11092994
9.85                 0.947388145     0.104803585
9.861                0.947580102    0.0986300632
9.872                0.947725248    0.0924085286
9.883                0.947822405    0.0861381154
9.894                0.947870346    0.0798179368
9.905                0.947867792    0.0734470845
9.916                0.947813413    0.0670246286
9.927                0.947705822    0.0605496172
9.938                0.947543576    0.0540210758
9.949                0.947325167    0.0474380071
9.96                 0.947049028    0.0407993909
9.971                 0.94671352    0.0341041834
9.982                0.946316935    0.0273513175
9.993                0.945857493    0.0205397019
10.004               0.945333333    0.0136682214
10.015               0.944742513    0.0067357369
10.026               0.944083005 -0.000258915287
10.037                0.94335269  -0.00731692286
10.048               0.942549354   -0.0144394977
10.059               0.941670683   -0.0216278759
10.07                0.940714255   -0.0288833169
10.081                0.93967754   -0.0362071041
10.092               0.938557888   -0.0436005434
10.103               0.937352528   -0.0510649634
10.114               0.936058556   -0.0586017141
10.125               0.934672934   -0.0662121662
10.136               0.933192475     -0.07389771
10.147               0.931613844   -0.0816597541
10.158               0.929933542   -0.0894997236
10.169               0.928147901   -0.0974190583
10.18                0.926253074    -0.105419211
10.191               0.924245022    -0.113501644
10.202               0.922119509    -0.121667827
10.213               0.919872086    -0.129919233
10.224               0.917498081    -0.138257337
10.235               0.914992585    -0.146683608
10.246               0.912350441    -0.155199506
10.257               0.909566226    -0.163806475
10.268               0.906634239    -0.172505941
10.279               0.903548484    -0.181299297
10.29                0.900302652    -0.190187903
10.301               0.896890104    -0.199173071
10.312               0.893303853    -0.208256057
10.323               0.889536538    -0.217438049
10.334               0.885580412    -0.226720155
10.345               0.881427311    -0.236103383
10.356               0.877068633    -0.245588633
10.367               0.872495314    -0.255176671
10.378                 0.8676978    -0.264868109
10.389               0.862666018    -0.274663386
10.4                  0.85738935    -0.284562737
10.411               0.851856596    -0.294566165
10.422               0.846055948    -0.304673409
10.433               0.839974952    -0.314883905
10.444               0.833600472    -0.325196746
10.455               0.826918658    -0.335610636
10.466               0.819914902    -0.346123839
10.477               0.812573803    -0.356734117
10.488               0.804879124    -0.367438671
10.499               0.796813754    -0.378234069
10.51                0.788359663    -0.389116161
10.521               0.779497863    -0.400079995
10.532               0.770208367    -0.411119713
10.543               0.760470146    -0.422228447
10.554               0.750261098    -0.433398189
10.565               0.739558002    -0.444619658
10.576               0.728336498    -0.455882151
10.587               0.716571053     -0.46717337
10.598               0.704234948    -0.478479241
10.609               0.691300265    -0.489783706
10.62                 0.67773789    -0.501068498
10.631               0.663517531    -0.512312895
10.642               0.648607753    -0.523493443
10.653               0.632976033    -0.534583662
10.664               0.616588848    -0.545553717
10.675               0.599411785    -0.556370069
10.686               0.581409705     -0.56699509
10.697               0.562546936    -0.577386657
10.708               0.542787538    -0.587497712
10.719               0.522095617    -0.597275801
10.73                0.500435724    -0.606662587
10.741               0.477773341     -0.61559335
10.752                0.45407546    -0.623996475
10.763               0.429311285    -0.631792937
10.774               0.403453054    -0.638895804
10.785               0.376477016    -0.645209773
10.796               0.348364556    -0.650630751
10.807               0.319103497    -0.655045527
10.818               0.288689587    -0.658331552
10.829               0.257128178     -0.66035688
10.84                 0.22443609    -0.660980311
10.851                0.19064367    -0.660051797
10.862               0.155797014    -0.657413164
10.873                0.11996033    -0.652899231
10.884              0.0832183828    -0.646339389
10.895               0.045678963    -0.637559711
10.9                0.0283869954    -0.632787852
10.906             0.00747527127    -0.626385663
10.917             -0.0312318937    -0.612645475
10.928              -0.070252299    -0.596174192
10.939              -0.109364967    -0.576818423
10.95               -0.148317589    -0.554441754
10.961              -0.186826881    -0.528930723
10.972              -0.224580084    -0.500201211
10.983              -0.261237815    -0.468205033
10.994              -0.296438421    -0.432936433
11.005              -0.329803917    -0.394438108
11.016              -0.360947528    -0.352806365
11.027              -0.389482683    -0.308194964
11.038              -0.415033246    -0.260817204
11.049              -0.437244563     -0.21094588
11.06               -0.455794831    -0.158910817
11.071              -0.470406164    -0.105093852
11.082              -0.480854691   -0.0499212852
11.093               -0.48697903     0.006145944
11.104              -0.488686537    0.0626239418
11.115              -0.485956907     0.119018797
11.126               -0.47884283     0.174840057
11.137              -0.467467683     0.229613981
11.148              -0.452020435     0.282895821
11.159               -0.43274813     0.334280487
11.17               -0.409946504     0.383411097
11.181              -0.383949369     0.429985096
11.192              -0.355117415     0.473757835
11.203              -0.323827082     0.514543684
11.214              -0.290460054     0.552214897
11.225              -0.255393791     0.586698587
11.236               -0.21899343     0.617972223
11.247              -0.181605202     0.646058067
11.258              -0.143551424     0.671016998
11.269              -0.105127004     0.692942077
11.28              -0.0665973448     0.711952191
11.291             -0.0281974489     0.728185999
11.302             0.00986795409     0.741796383
11.313              0.0474234862     0.752945491
11.324              0.0843215938     0.761800449
11.335               0.120440601     0.768529747
11.346               0.155682501     0.773300268
11.357               0.189970609     0.776274938
11.368               0.223247196     0.777610912
11.379               0.255471163     0.777458247
11.39                0.286615825     0.775958984
11.401               0.316666849     0.773246576
11.412               0.345620347     0.769445601
11.423               0.373481165      0.76467169
11.434               0.400261344     0.759031644
11.445               0.425978766     0.752623674
11.456               0.450655972     0.745537741
11.467               0.474319131     0.737855965
11.478               0.496997164     0.729653072
11.489               0.518720991     0.720996872
11.5                 0.539522904     0.711948738
11.511               0.559436031     0.702564085
11.522               0.578493905     0.692892841
11.533               0.596730099     0.682979898
11.544               0.614177939     0.672865536
11.555               0.630870268     0.662585834
11.566               0.646839261     0.652173044
11.577               0.662116286     0.641655947
11.588               0.676731795     0.631060177
11.599               0.690715245     0.620408522
11.61                0.704095051     0.609721201
11.621               0.716898543     0.599016113
11.632               0.729151958     0.588309073
11.643               0.740880434     0.577614016
11.654               0.752108016     0.566943188
11.665               0.762857671     0.556307323
11.676               0.773151314     0.545715794
11.687               0.783009833     0.535176756
11.698               0.792453121     0.524697273
11.709                0.80150011     0.514283435
11.72                0.810168804     0.503940459
11.731               0.818476321     0.493672784
11.742               0.826438926     0.483484154
11.753               0.834072071     0.473377693
11.764                0.84139043     0.463355973
11.775               0.848407938     0.453421079
11.786               0.855137824     0.443574656
11.797               0.861592649     0.433817964
11.808               0.867784335     0.424151922
11.819               0.873724201     0.414577143
11.83                0.879422996     0.405093974
11.841                0.88489092     0.395702527
11.852               0.890137665     0.386402706
11.863                0.89517243     0.377194232
11.874               0.900003956     0.368076668
11.885               0.904640546     0.359049439
11.896               0.909090089     0.350111848
11.907               0.913360083     0.341263096
11.918               0.917457656     0.332502293
11.929               0.921389585     0.323828473
11.94                0.925162317     0.315240607
11.951               0.928781982     0.306737609
11.962               0.932254415      0.29831835
11.973               0.935585172     0.289981664
11.984               0.938779539     0.281726353
11.995               0.941842553       0.2735512
12.006               0.944779011     0.265454968
12.017               0.947593486     0.257436409
12.028               0.950290335     0.249494268
12.039               0.952873715     0.241627283
12.05                0.955347588     0.233834197
12.061               0.957715736     0.226113753
12.072               0.959981769       0.2184647
12.083               0.962149133     0.210885796
12.094               0.964221117     0.203375809
12.105               0.966200866     0.195933518
12.116               0.968091383     0.188557717
12.127               0.969895541     0.181247213
12.138               0.971616084     0.174000831
12.149               0.973255639     0.166817413
12.16                0.974816719     0.159695816
12.171               0.976301728     0.152634918
12.182               0.977712969     0.145633614
12.193               0.979052648     0.138690822
12.204               0.980322875     0.131805474
12.215               0.981525676     0.124976527
12.226                0.98266299     0.118202955
12.237               0.983736679     0.111483754
12.248               0.984748526     0.104817937
12.259               0.985700243    0.0982045417
12.27                0.986593473     0.091642622
12.281               0.987429794    0.0851312534
12.292                0.98821072    0.0786695308
12.303               0.988937706    0.0722565687
12.314                0.98961215     0.065891501
12.325               0.990235395    0.0595734805
12.336               0.990808733    0.0533016791
12.347               0.991333405    0.0470752872
12.358               0.991810608    0.0408935134
12.369               0.992241489    0.0347555844
12.38                0.992627156    0.0286607446
12.391               0.992968675    0.0226082558
12.402                0.99326707    0.0165973967
12.413               0.993523329    0.0106274629
12.424               0.993738406    0.0046977663
12.435               0.993913217   -0.0011923651
12.446               0.994048648  -0.00704358755
12.457                0.99414555   -0.0128565419
12.468               0.994204747   -0.0186318539
12.479               0.994227033   -0.0243701346
12.49                0.994213173   -0.0300719805
12.501               0.994163908   -0.0357379743