! TOUCHSTONE file generated by CST MICROWAVE STUDIO
! Date and time: Mon Jan 20 16:13:11 2025
! Project name: unitcell.cst
! Parameters = {A=1.28774; AB_sqInv=0.602802; B=0.025494; C0=2.097; Cj=0.260654; Cp=0.075; Ct=0.335198; ImZ=-47.4809; L=10; L1=0.3; Lp=0.35; Lpad=0.75; M=1.199; R=5.41; ReZ=3.26116; Rt=3.26116; V=14; Vj=2.984; W=10; W1=-0.15; W2=-0.15; Wcoop=3.29; Wgap=1; Wline=1.42; Wpad=0.475; Wpadgap=0.35; Xpad1=1.6225; Xpad2=0.7975; Xpad3=1.6225; Xpad4=0.7975; Xvar_centre=1.21; f=0.01; f0=11; fmax=11.25; fmin=10.75; h=0.8; phi=0; th=0.035; theta=0}
! Header version: 2024
! Port assignment regex: !\s*Touchstone port\s*([0-9]+)\s*=\s*(CST MWS port|CST DES external port|CST DES block port)\s*(.+)\s* \(\"(.*)\"\)(\s*mode\s*([0-9]+))?.*
! Touchstone port assignment:
! Touchstone port 1 = CST MWS port Zmax ("") mode 1
! S-Parameters are not renormalized. Unphysical impedance of 0 will be written to the file.
# GHz S RI R 0
6                     0.64069909    0.0615467208
6.011                0.621761561    0.0277210204
6.022                0.599912351  -0.00590552359
6.033                0.575020648   -0.0390359448
6.044                0.546987245   -0.0713359299
6.055                0.515753535    -0.102436436
6.066                 0.48131073    -0.131938481
6.077                0.443708754    -0.159420376
6.088                0.403064131    -0.184447507
6.099                0.359566108    -0.206584601
6.11                  0.31348019    -0.225410141
6.121                0.265148356    -0.240532311
6.132                 0.21498535    -0.251605596
6.143                0.163470756    -0.258346915
6.154                0.111136885    -0.260550039
6.165               0.0585529694    -0.258097066
6.176              0.00630652123    -0.250965869
6.187              -0.0450169008    -0.239232765
6.198              -0.0948540909    -0.223070077
6.209               -0.142683282    -0.202738746
6.22                 -0.18804058    -0.178576628
6.231               -0.230532713    -0.150983492
6.242               -0.269845451    -0.120403955
6.253               -0.305747514   -0.0873097051
6.264               -0.338090187   -0.0521822434
6.275               -0.366803212    -0.015497185
6.286                -0.39188773    0.0222891202
6.297               -0.413407173    0.0607502157
6.308               -0.431476987    0.0994972664
6.319                -0.44625398     0.138183991
6.33                -0.457925939     0.176509078
6.341               -0.466702015      0.21421648
6.352               -0.472804179     0.251094031
6.363               -0.476459933     0.286970821
6.374               -0.477896323     0.321713746
6.385               -0.477335207     0.355223566
6.396               -0.474989692      0.38743077
6.407               -0.471061585     0.418291464
6.418               -0.465739722     0.447783428
6.429               -0.459199006     0.475902457
6.44                -0.451600023     0.502659045
6.451               -0.443089095     0.528075437
6.462               -0.433798656      0.55218306
6.473               -0.423847868     0.575020314
6.484               -0.413343382     0.596630695
6.495                 -0.4023802     0.617061236
6.506                -0.39104258     0.636361212
6.517               -0.379404944     0.654581087
6.528               -0.367532779     0.671771675
6.539                 -0.3554835     0.687983466
6.55                 -0.34330726     0.703266111
6.561               -0.331047713     0.717668029
6.572               -0.318742718     0.731236114
6.583                -0.30642498     0.744015526
6.594               -0.294122638     0.756049558
6.605               -0.281859792     0.767379549
6.616               -0.269656981     0.778044847
6.627               -0.257531611       0.7880828
6.638               -0.245498336      0.79752878
6.649               -0.233569395     0.806416223
6.66                 -0.22175492     0.814776685
6.671               -0.210063199     0.822639908
6.682               -0.198500911     0.830033895
6.693               -0.187073341     0.836984988
6.704               -0.175784561     0.843517949
6.715                -0.16463759     0.849656039
6.726               -0.153634541     0.855421104
6.737               -0.142776742     0.860833651
6.748               -0.132064853     0.865912928
6.759               -0.121498953     0.870676996
6.77                -0.111078633     0.875142805
6.781               -0.100803064     0.879326258
6.792              -0.0906710652     0.883242281
6.803              -0.0806811601     0.886904882
6.814              -0.0708316239     0.890327208
6.825              -0.0611205279     0.893521604
6.836              -0.0515457768     0.896499664
6.847              -0.0421051406     0.899272276
6.858              -0.0327962833     0.901849672
6.869              -0.0236167873     0.904241469
6.88               -0.0145641744     0.906456707
6.891             -0.00563592405      0.90850389
6.902              0.00317051096     0.910391018
6.913               0.0118576908     0.912125622
6.924               0.0204281773     0.913714792
6.935               0.0288845239     0.915165205
6.946               0.0372292674     0.916483156
6.957               0.0454649208     0.917674575
6.968               0.0535939677     0.918745059
6.979               0.0616188569     0.919699884
6.99                0.0695419985     0.920544035
7.001               0.0773657607     0.921282213
7.012                0.085092467     0.921918865
7.023               0.0927243943     0.922458189
7.034                0.100263771     0.922904156
7.045                0.107712776     0.923260522
7.056                0.115073537      0.92353084
7.067                0.122348133     0.923718475
7.078                 0.12953859     0.923826612
7.089                0.136646883     0.923858269
7.1                  0.143674937     0.923816308
7.111                0.150624627     0.923703442
7.122                0.157497775     0.923522242
7.133                0.164296158     0.923275151
7.144                  0.1710215     0.922964487
7.155                0.177675482     0.922592452
7.166                0.184259733     0.922161137
7.177                0.190775839      0.92167253
7.188                0.197225341     0.921128521
7.199                0.203609736     0.920530908
7.21                 0.209930476     0.919881402
7.221                0.216188973     0.919181631
7.232                0.222386598     0.918433146
7.243                0.228524681     0.917637424
7.254                0.234604516     0.916795872
7.265                0.240627355     0.915909832
7.276                0.246594417     0.914980583
7.287                0.252506884     0.914009346
7.298                0.258365903     0.912997286
7.309                0.264172588     0.911945513
7.32                  0.26992802      0.91085509
7.331                0.275633248      0.90972703
7.342                0.281289292     0.908562302
7.353                 0.28689714     0.907361832
7.364                0.292457751     0.906126504
7.375                0.297972058     0.904857166
7.386                0.303440966     0.903554626
7.397                0.308865353     0.902219661
7.408                0.314246071     0.900853011
7.419                0.319583948     0.899455387
7.43                 0.324879788     0.898027469
7.441                0.330134373     0.896569909
7.452                0.335348459      0.89508333
7.463                0.340522783     0.893568332
7.474                 0.34565806     0.892025488
7.485                0.350754984     0.890455348
7.496                0.355814231     0.888858441
7.507                0.360836455     0.887235272
7.518                0.365822292     0.885586327
7.529                0.370772361     0.883912074
7.54                 0.375687264     0.882212959
7.551                0.380567583     0.880489413
7.562                0.385413886     0.878741849
7.573                0.390226724     0.876970664
7.584                0.395006633      0.87517624
7.595                0.399754134     0.873358942
7.606                0.404469733     0.871519123
7.617                0.409153922     0.869657123
7.628                0.413807179     0.867773266
7.639                0.418429969     0.865867866
7.65                 0.423022744     0.863941225
7.661                0.427585943     0.861993632
7.672                0.432119994     0.860025366
7.683                0.436625313     0.858036696
7.694                0.441102303      0.85602788
7.705                0.445551357     0.853999168
7.716                0.449972858     0.851950798
7.727                0.454367177     0.849883001
7.738                0.458734676     0.847795999
7.749                0.463075706     0.845690006
7.76                  0.46739061     0.843565227
7.771                 0.47167972     0.841421862
7.782                 0.47594336     0.839260101
7.793                0.480181845     0.837080127
7.804                0.484395481     0.834882118
7.815                0.488584567     0.832666246
7.826                0.492749391     0.830432673
7.837                0.496890237     0.828181558
7.848                0.501007378     0.825913055
7.859                0.505101082     0.823627309
7.87                 0.509171609     0.821324463
7.881                0.513219211     0.819004652
7.892                0.517244134     0.816668007
7.903                0.521246618     0.814314656
7.914                0.525226896     0.811944719
7.925                0.529185193     0.809558314
7.936                0.533121731     0.807155553
7.947                0.537036724     0.804736544
7.958                 0.54093038     0.802301393
7.969                0.544802903     0.799850198
7.98                 0.548654489     0.797383058
7.991                0.552485331     0.794900063
8.002                0.556295616     0.792401304
8.013                0.560085525     0.789886865
8.024                0.563855234      0.78735683
8.035                0.567604917     0.784811276
8.046                0.571334739      0.78225028
8.057                0.575044863     0.779673913
8.068                0.578735448     0.777082246
8.079                0.582406646     0.774475344
8.09                 0.586058608     0.771853271
8.101                0.589691477     0.769216088
8.112                0.593305394     0.766563854
8.123                0.596900498     0.763896622
8.134                 0.60047692     0.761214447
8.145                 0.60403479     0.758517378
8.156                0.607574233     0.755805463
8.167                0.611095371     0.753078748
8.178                0.614598323     0.750337275
8.189                0.618083202     0.747581086
8.2                   0.62155012     0.744810218
8.211                0.624999186     0.742024707
8.222                0.628430502     0.739224589
8.233                0.631844172     0.736409894
8.244                0.635240293     0.733580653
8.255                 0.63861896     0.730736892
8.266                0.641980266     0.727878639
8.277                0.645324299     0.725005916
8.288                0.648651146     0.722118746
8.299                0.651960891     0.719217147
8.31                 0.655253613     0.716301139
8.321                0.658529391     0.713370737
8.332                0.661788299     0.710425956
8.343                0.665030411     0.707466807
8.354                0.668255795     0.704493302
8.365                 0.67146452     0.701505449
8.376                 0.67465665     0.698503255
8.387                0.677832248     0.695486726
8.398                0.680991372     0.692455865
8.409                0.684134081     0.689410674
8.42                 0.687260429     0.686351153
8.431                 0.69037047       0.6832773
8.442                0.693464253     0.680189113
8.453                0.696541827     0.677086586
8.464                0.699603238     0.673969712
8.475                0.702648528     0.670838484
8.486                 0.70567774     0.667692892
8.497                0.708690913     0.664532923
8.508                0.711688084     0.661358565
8.519                0.714669288     0.658169803
8.53                 0.717634557      0.65496662
8.541                0.720583923     0.651748998
8.552                0.723517414     0.648516916
8.563                0.726435057     0.645270355
8.574                0.729336877     0.642009289
8.585                0.732222896     0.638733696
8.596                0.735093134     0.635443547
8.607                0.737947611     0.632138814
8.618                0.740786344     0.628819469
8.629                0.743609345     0.625485478
8.64                 0.746416629      0.62213681
8.651                0.749208207     0.618773428
8.662                0.751984086     0.615395296
8.673                0.754744274     0.612002375
8.684                0.757488775     0.608594626
8.695                0.760217593     0.605172005
8.706                0.762930729      0.60173447
8.717                0.765628181     0.598281974
8.728                0.768309947     0.594814469
8.739                0.770976021     0.591331908
8.75                 0.773626398     0.587834237
8.761                0.776261068     0.584321404
8.772                0.778880021     0.580793354
8.783                0.781483243      0.57725003
8.794                0.784070721     0.573691373
8.805                0.786642436     0.570117321
8.816                0.789198372     0.566527813
8.827                0.791738507     0.562922781
8.838                0.794262817      0.55930216
8.849                0.796771279      0.55566588
8.86                 0.799263866      0.55201387
8.871                0.801740548     0.548346056
8.882                0.804201294     0.544662361
8.893                0.806646071     0.540962708
8.904                0.809074843     0.537247017
8.915                0.811487573     0.533515204
8.926                0.813884221     0.529767185
8.937                0.816264745     0.526002871
8.948                  0.8186291     0.522222174
8.959                 0.82097724     0.518424999
8.97                 0.823309115     0.514611253
8.981                0.825624674     0.510780837
8.992                0.827923863      0.50693365
9.003                0.830206625     0.503069591
9.014                0.832472902     0.499188553
9.025                0.834722632     0.495290427
9.036                 0.83695575     0.491375102
9.047                0.839172191     0.487442463
9.058                0.841371884     0.483492394
9.069                0.843554757     0.479524772
9.08                 0.845720734     0.475539476
9.091                0.847869738     0.471536378
9.102                0.850001688     0.467515347
9.113                  0.8521165     0.463476252
9.124                0.854214085     0.459418954
9.135                0.856294354     0.455343314
9.146                0.858357214     0.451249188
9.157                0.860402566     0.447136428
9.168                0.862430312     0.443004884
9.179                0.864440346     0.438854401
9.19                 0.866432561     0.434684819
9.201                0.868406846     0.430495978
9.212                0.870363086     0.426287708
9.223                0.872301162     0.422059841
9.234                0.874220951       0.4178122
9.245                0.876122326     0.413544607
9.256                0.878005155     0.409256877
9.267                0.879869303     0.404948822
9.278                0.881714629     0.400620249
9.289                 0.88354099      0.39627096
9.3                  0.885348234     0.391900753
9.311                0.887136209     0.387509419
9.322                0.888904754     0.383096747
9.333                0.890653704     0.378662518
9.344                0.892382889     0.374206509
9.355                0.894092134      0.36972849
9.366                0.895781258     0.365228228
9.377                0.897450072     0.360705481
9.388                0.899098384     0.356160004
9.399                0.900725994     0.351591545
9.41                 0.902332695     0.346999845
9.421                0.903918274     0.342384638
9.432                0.905482513     0.337745654
9.443                0.907025182     0.333082615
9.454                0.908546049     0.328395235
9.465                 0.91004487     0.323683222
9.476                0.911521394     0.318946278
9.487                0.912975365     0.314184095
9.498                0.914406514     0.309396358
9.509                0.915814565     0.304582747
9.52                 0.917199233      0.29974293
9.531                0.918560223     0.294876569
9.542                0.919897231     0.289983317
9.553                0.921209942      0.28506282
9.564                0.922498029     0.280114711
9.575                0.923761157     0.275138619
9.586                0.924998978      0.27013416
9.597                 0.92621113     0.265100941
9.608                0.927397243      0.26003856
9.619                 0.92855693     0.254946605
9.63                 0.929689793     0.249824653
9.641                 0.93079542      0.24467227
9.652                0.931873384     0.239489013
9.663                0.932923242     0.234274424
9.674                0.933944537     0.229028036
9.685                0.934936795     0.223749372
9.696                0.935899526     0.218437939
9.707                0.936832221     0.213093234
9.718                0.937734353     0.207714739
9.729                0.938605376     0.202301926
9.74                 0.939444725     0.196854252
9.751                0.940251812     0.191371158
9.762                 0.94102603     0.185852074
9.773                0.941766748     0.180296414
9.784                 0.94247331     0.174703577
9.795                0.943145038     0.169072947
9.806                0.943781227     0.163403893
9.817                0.944381146     0.157695765
9.828                0.944944033       0.1519479
9.839                0.945469102     0.146159616
9.85                 0.945955531     0.140330213
9.861                0.946402469     0.134458976
9.872                0.946809031     0.128545169
9.883                0.947174297     0.122588038
9.894                0.947497311      0.11658681
9.905                0.947777076     0.110540694
9.916                0.948012558     0.104448875
9.927                0.948202679    0.0983105225
9.938                0.948346318    0.0921247808
9.949                0.948442308    0.0858907751
9.96                 0.948489432     0.079607608
9.971                0.948486423    0.0732743599
9.982                0.948431962    0.0668900886
9.993                0.948324673    0.0604538286
10.004               0.948163121    0.0539645908
10.015                0.94794581    0.0474213622
10.026               0.947671179    0.0408231054
10.037               0.947337601    0.0341687584
10.048               0.946943373    0.0274572338
10.059               0.946486722    0.0206874192
10.07                0.945965794    0.0138581765
10.081               0.945378651   0.00696834173
10.092               0.944723268  1.67249038e-05
10.103               0.943997529  -0.00699788998
10.114               0.943199221   -0.0140767451
10.125               0.942326029   -0.0212211087
10.136               0.941375529   -0.0284322749
10.147               0.940345185   -0.0357115637
10.158               0.939232342   -0.0430603203
10.169               0.938034219   -0.0504799149
10.18                0.936747899   -0.0579717418
10.191               0.935370329   -0.0655372188
10.202               0.933898307    -0.073177786
10.213               0.932328471    -0.080894905
10.224                 0.9306573   -0.0886900569
10.235               0.928881092   -0.0965647408
10.246               0.926995966    -0.104520472
10.257               0.924997843    -0.112558779
10.268               0.922882439    -0.120681201
10.279               0.920645251    -0.128889286
10.29                0.918281546    -0.137184584
10.301               0.915786347    -0.145568645
10.312               0.913154419    -0.154043015
10.323               0.910380251    -0.162609228
10.334               0.907458044    -0.171268799
10.345               0.904381694    -0.180023223
10.356               0.901144768    -0.188873957
10.367               0.897740491    -0.197822418
10.378               0.894161723    -0.206869971
10.389               0.890400937    -0.216017916
10.4                 0.886450195    -0.225267474
10.411               0.882301128    -0.234619771
10.422               0.877944905    -0.244075826
10.433               0.873372205    -0.253636525
10.444               0.868573195    -0.263302603
10.455               0.863537493    -0.273074619
10.466               0.858254137    -0.282952927
10.477               0.852711553    -0.292937647
10.488               0.846897516    -0.303028628
10.499               0.840799118    -0.313225412
10.51                0.834402723    -0.323527186
10.521                0.82769393    -0.333932737
10.532               0.820657528    -0.344440394
10.543               0.813277455    -0.355047967
10.554               0.805536752    -0.365752679
10.565               0.797417514    -0.376551087
10.576               0.788900849    -0.387438996
10.587               0.779966826    -0.398411362
10.598               0.770594429    -0.409462183
10.609               0.760761513    -0.420584381
10.62                0.750444759    -0.431769663
10.631               0.739619633    -0.443008375
10.642               0.728260349    -0.454289332
10.653               0.716339837    -0.465599631
10.664               0.703829724    -0.476924449
10.675               0.690700315     -0.48824681
10.686               0.676920599    -0.499547336
10.697               0.662458261    -0.510803961
10.708               0.647279724    -0.521991633
10.719               0.631350205    -0.533081968
10.73                0.614633818    -0.544042889
10.741               0.597093695    -0.554838219
10.752               0.578692172    -0.565427246
10.763               0.559391017     -0.57576426
10.774               0.539151725    -0.585798048
10.785               0.517935892    -0.595471363
10.796               0.495705681    -0.604720372
10.807               0.472424382    -0.613474072
10.818               0.448057107    -0.621653711
10.829               0.422571608    -0.629172199
10.84                0.395939266    -0.635933545
10.851               0.368136236    -0.641832334
10.862               0.339144803    -0.646753276
10.873                0.30895493    -0.650570859
10.884               0.277566039    -0.653149156
10.895               0.244989011    -0.654341832
10.9                 0.229794578    -0.654383941
10.906               0.211248415    -0.653992417
10.917               0.176384955    -0.651934916
10.928               0.140458099    -0.647994835
10.939               0.103548848    -0.641990706
10.95               0.0657625725    -0.633736204
10.961              0.0272318148    -0.623042937
10.972             -0.0118810778    -0.609723988
10.983             -0.0513816532     -0.59359826
10.994             -0.0910415955    -0.574495649
11.005              -0.130597739    -0.552263028
11.016              -0.169752114    -0.526770938
11.027              -0.208173282    -0.497920856
11.038              -0.245499219    -0.465652759
11.049              -0.281341945    -0.429952672
11.06                -0.31529404    -0.390859768
11.071              -0.346937062    -0.348472503
11.082              -0.375851744    -0.302953274
11.093              -0.401629702     -0.25453104
11.104              -0.423886163     -0.20350143
11.115              -0.442273115    -0.150223982
11.126              -0.456492104   -0.0951163225
11.137               -0.46630588   -0.0386453382
11.148              -0.471548046    0.0186843669
11.159              -0.472130029    0.0763441837
11.17               -0.468044801     0.133796624
11.181              -0.459367084     0.190510965
11.192              -0.446250011     0.245978468
11.203              -0.428918514     0.299726258
11.214              -0.407659968     0.351329112
11.225               -0.38281279     0.400418579
11.236              -0.354753787     0.446689128
11.247              -0.323885097     0.489901241
11.258              -0.290621453     0.529881634
11.269              -0.255378434      0.56652094
11.28               -0.218562142     0.599769319
11.291               -0.18056064     0.629630538
11.302              -0.141737255     0.656155055
11.313              -0.102425762     0.679432595
11.324             -0.0629273029     0.699584661
11.335             -0.0235088661      0.71675732
11.346               0.015596933     0.731114506
11.357              0.0541910233     0.742832031
11.368              0.0921062546      0.75209236
11.379               0.129205215     0.759080216
11.39                0.165377693     0.763978973
11.401               0.200537949     0.766967794
11.412               0.234621941     0.768219443
11.423               0.267584595      0.76789869
11.434               0.299397208     0.766161214
11.445               0.330045021     0.763152934
11.456               0.359524998     0.759009673
11.467               0.387843826       0.7538571
11.478               0.415016137     0.747810878
11.489               0.441062946     0.740976966
11.5                 0.466010292     0.733452035
11.511               0.489888071     0.725323962
11.522               0.512729043     0.716672365
11.533               0.534567991     0.707569166
11.544               0.555441019     0.698079158
11.555               0.575384968     0.688260568
11.566               0.594436946     0.678165596
11.577               0.612633933     0.667840941
11.588               0.630012477     0.657328289
11.599               0.646608447     0.646664777
11.61                0.662456847      0.63588342
11.621               0.677591675     0.625013512
11.632               0.692045813     0.614080989
11.643               0.705850963     0.603108764
11.654               0.719037597     0.592117037
11.665               0.731634936     0.581123568
11.676               0.743670937     0.570143933
11.687               0.755172309     0.559191752
11.698               0.766164523     0.548278897
11.709                0.77667184     0.537415676
11.72                0.786717344     0.526611002
11.731                0.79632298     0.515872548
11.742               0.805509592     0.505206876
11.753               0.814296967     0.494619564
11.764               0.822703877     0.484115314
11.775               0.830748128      0.47369805
11.786               0.838446598     0.463371006
11.797               0.845815286     0.453136803
11.808               0.852869352     0.442997523
11.819               0.859623163     0.432954766
11.83                0.866090329     0.423009714
11.841               0.872283745     0.413163174
11.852               0.878215631     0.403415627
11.863               0.883897563     0.393767266
11.874               0.889340511     0.384218036
11.885               0.894554874     0.374767657
11.896               0.899550508     0.365415663
11.907               0.904336755     0.356161419
11.918               0.908922478      0.34700415
11.929               0.913316079     0.337942953
11.94                0.917525531     0.328976826
11.951               0.921558399     0.320104673
11.962               0.925421864     0.311325325
11.973               0.929122745     0.302637549
11.984               0.932667514     0.294040063
11.995               0.936062324      0.28553154
12.006               0.939313019     0.277110623
12.017               0.942425156     0.268775929
12.028               0.945404017     0.260526055
12.039               0.948254628     0.252359589
12.05                0.950981769     0.244275108
12.061               0.953589991      0.23627119
12.072               0.956083627     0.228346413
12.083               0.958466804      0.22049936
12.094               0.960743451     0.212728623
12.105               0.962917317     0.205032804
12.116               0.964991972      0.19741052
12.127               0.966970824     0.189860401
12.138               0.968857122     0.182381096
12.149               0.970653968     0.174971271
12.16                0.972364322     0.167629612
12.171               0.973991011     0.160354827
12.182               0.975536736     0.153145643
12.193               0.977004078     0.146000811
12.204               0.978395505     0.138919103
12.215               0.979713375     0.131899315
12.226               0.980959944     0.124940267
12.237               0.982137373     0.118040802
12.248               0.983247726     0.111199785
12.259               0.984292985     0.104416107
12.27                0.985275042    0.0976886803
12.281               0.986195715    0.0910164429
12.292               0.987056744    0.0843983544
12.303               0.987859796    0.0778333982
12.314               0.988606471    0.0713205804
12.325               0.989298305    0.0648589296
12.336               0.989936769    0.0584474969
12.347               0.990523278    0.0520853552
12.358               0.991059189     0.045771599
12.369               0.991545804    0.0395053443
12.38                0.991984378    0.0332857278
12.391               0.992376112    0.0271119067
12.402               0.992722165    0.0209830584
12.413               0.993023648      0.01489838
12.424               0.993281632   0.00885708803
12.435               0.993497146    0.0028584178
12.446               0.993671182  -0.00309837676
12.457               0.993804693  -0.00901402361
12.468               0.993898597    -0.014889233
12.479               0.993953781   -0.0207246978
12.49                0.993971095   -0.0265210941
12.501               0.993951363   -0.0322790813