! TOUCHSTONE file generated by CST MICROWAVE STUDIO
! Date and time: Mon Jan 20 16:13:11 2025
! Project name: unitcell.cst
! Parameters = {A=1.30817; AB_sqInv=0.584128; B=0.025494; C0=2.097; Cj=0.243374; Cp=0.075; Ct=0.317982; ImZ=-50.0516; L=10; L1=0.3; Lp=0.35; Lpad=0.75; M=1.199; R=5.41; ReZ=3.16013; Rt=3.16013; V=15; Vj=2.984; W=10; W1=-0.15; W2=-0.15; Wcoop=3.29; Wgap=1; Wline=1.42; Wpad=0.475; Wpadgap=0.35; Xpad1=1.6225; Xpad2=0.7975; Xpad3=1.6225; Xpad4=0.7975; Xvar_centre=1.21; f=0.01; f0=11; fmax=11.25; fmin=10.75; h=0.8; phi=0; th=0.035; theta=0}
! Header version: 2024
! Port assignment regex: !\s*Touchstone port\s*([0-9]+)\s*=\s*(CST MWS port|CST DES external port|CST DES block port)\s*(.+)\s* \(\"(.*)\"\)(\s*mode\s*([0-9]+))?.*
! Touchstone port assignment:
! Touchstone port 1 = CST MWS port Zmax ("") mode 1
! S-Parameters are not renormalized. Unphysical impedance of 0 will be written to the file.
# GHz S RI R 0
6                    0.741709601     0.339304344
6.011                0.742414083     0.312243763
6.022                0.741935772     0.284186473
6.033                0.740139305     0.255145894
6.044                 0.73687933     0.225148405
6.055                0.732000961     0.194235811
6.066                0.725340636     0.162468052
6.077                0.716727481     0.129926116
6.088                0.705985296    0.0967150804
6.099                0.692935251    0.0629672091
6.11                 0.677399431    0.0288449447
6.121                0.659205285  -0.00545636839
6.132                0.638191073   -0.0397062654
6.143                0.614212298    -0.073637725
6.154                0.587149083    -0.106946832
6.165                0.556914327    -0.139293884
6.176                0.523462397    -0.170306287
6.187                 0.48679794    -0.199583552
6.198                0.446984311    -0.226704617
6.209                0.404150963    -0.251237595
6.22                 0.358499078    -0.272751845
6.231                0.310304676    -0.290832046
6.242                0.259918526    -0.305093674
6.253                0.207762302    -0.315199049
6.264                0.154320704    -0.320872893
6.275                  0.1001296    -0.321916229
6.286               0.0457606367    -0.318217466
6.297             -0.00819688235     -0.30975964
6.308              -0.0611556695     -0.29662308
6.319               -0.112550354    -0.278983192
6.33                -0.161856195    -0.257103449
6.341               -0.208605333    -0.231324185
6.352               -0.252399549    -0.202048099
6.363               -0.292918901    -0.169723656
6.374                -0.32992599    -0.134827651
6.385               -0.363266025    -0.097848131
6.396               -0.392863189   -0.0592687139
6.407               -0.418714024   -0.0195550601
6.418               -0.440878676    0.0208560247
6.429               -0.459470864    0.0615646711
6.44                -0.474647344     0.102213269
6.451               -0.486597535     0.142489271
6.462               -0.495533803     0.182125841
6.473               -0.501682751     0.220900759
6.484               -0.505277702     0.258634026
6.495               -0.506552463     0.295184564
6.506               -0.505736343     0.330446356
6.517               -0.503050335      0.36434434
6.528               -0.498704356     0.396830266
6.539               -0.492895373     0.427878696
6.55                -0.485806287     0.457483251
6.561               -0.477605414     0.485653194
6.572               -0.468446444     0.512410368
6.583               -0.458468743      0.53778651
6.594                -0.44779793     0.561820926
6.605               -0.436546605     0.584558517
6.616               -0.424815212     0.606048114
6.627               -0.412692935     0.626341099
6.638               -0.400258638     0.645490279
6.649               -0.387581772      0.66354897
6.66                -0.374723273     0.680570276
6.671                 -0.3617364     0.696606521
6.682               -0.348667532     0.711708818
6.693               -0.335556897     0.725926739
6.704               -0.322439251      0.73930809
6.715               -0.309344493     0.751898748
6.726               -0.296298222     0.763742561
6.737               -0.283322244     0.774881301
6.748               -0.270435022     0.785354649
6.759               -0.257652079     0.795200207
6.77                -0.244986364      0.80445354
6.781               -0.232448573      0.81314823
6.792               -0.220047427     0.821315941
6.803               -0.207789936     0.828986496
6.814               -0.195681611     0.836187956
6.825               -0.183726668     0.842946704
6.836               -0.171928202     0.849287532
6.847               -0.160288333     0.855233725
6.858               -0.148808349     0.860807142
6.869               -0.137488817     0.866028303
6.88                -0.126329692     0.870916461
6.891               -0.115330402     0.875489686
6.902               -0.104489933     0.879764931
6.913              -0.0938068942     0.883758106
6.924              -0.0832795806      0.88748414
6.935              -0.0729060255     0.890957045
6.946              -0.0626840461     0.894189977
6.957              -0.0526112845     0.897195286
6.968              -0.0426852415      0.89998457
6.979              -0.0329033079     0.902568726
6.99               -0.0232627897     0.904957994
7.001              -0.0137609316     0.907161998
7.012             -0.00439493604     0.909189787
7.023              0.00483801999     0.911049874
7.034               0.0139407703     0.912750268
7.045               0.0229161472     0.914298509
7.056               0.0317669714     0.915701696
7.067               0.0404960425     0.916966517
7.078               0.0491061319     0.918099274
7.089               0.0575999764     0.919105909
7.1                  0.065980273     0.919992026
7.111               0.0742496748     0.920762913
7.122               0.0824107871     0.921423561
7.133               0.0904661649     0.921978682
7.144               0.0984183107     0.922432729
7.155                0.106269673      0.92278991
7.166                0.114022645     0.923054204
7.177                0.121679563     0.923229373
7.188                0.129242708      0.92331898
7.199                0.136714303     0.923326393
7.21                 0.144096515     0.923254807
7.221                0.151391455     0.923107246
7.232                0.158601178     0.922886576
7.243                0.165727682     0.922595516
7.254                0.172772912     0.922236643
7.265                 0.17973876     0.921812405
7.276                0.186627064     0.921325124
7.287                 0.19343961     0.920777006
7.298                0.200178135     0.920170146
7.309                0.206844325     0.919506536
7.32                 0.213439817     0.918788069
7.331                0.219966203     0.918016546
7.342                0.226425027     0.917193681
7.353                0.232817789     0.916321104
7.364                0.239145944     0.915400368
7.375                0.245410906     0.914432952
7.386                0.251614047     0.913420265
7.397                0.257756698     0.912363651
7.408                0.263840151     0.911264389
7.419                0.269865662     0.910123702
7.43                 0.275834449     0.908942754
7.441                0.281747692     0.907722658
7.452                0.287606539     0.906464476
7.463                0.293412103     0.905169221
7.474                0.299165466     0.903837863
7.485                0.304867677     0.902471326
7.496                0.310519753     0.901070496
7.507                0.316122684      0.89963622
7.518                0.321677429     0.898169305
7.529                0.327184919     0.896670527
7.54                 0.332646061     0.895140626
7.551                0.338061732     0.893580312
7.562                0.343432785     0.891990263
7.573                0.348760048      0.89037113
7.584                0.354044326     0.888723536
7.595                  0.3592864     0.887048078
7.606                0.364487029     0.885345329
7.617                 0.36964695     0.883615837
7.628                0.374766879     0.881860128
7.639                0.379847511     0.880078707
7.65                 0.384889523     0.878272058
7.661                0.389893571     0.876440647
7.672                0.394860293     0.874584918
7.683                0.399790309       0.8727053
7.694                0.404684222     0.870802204
7.705                0.409542617     0.868876025
7.716                0.414366064     0.866927142
7.727                0.419155116      0.86495592
7.738                0.423910311     0.862962708
7.749                0.428632172     0.860947844
7.76                 0.433321208      0.85891165
7.771                0.437977912     0.856854438
7.782                0.442602766     0.854776506
7.793                0.447196237     0.852678143
7.804                 0.45175878     0.850559625
7.815                0.456290837     0.848421217
7.826                0.460792837     0.846263176
7.837                0.465265201     0.844085748
7.848                0.469708333      0.84188917
7.859                0.474122631     0.839673669
7.87                 0.478508479     0.837439466
7.881                0.482866252     0.835186772
7.892                0.487196315     0.832915789
7.903                0.491499022     0.830626713
7.914                0.495774719     0.828319733
7.925                0.500023741     0.825995029
7.936                0.504246415     0.823652777
7.947                0.508443059     0.821293143
7.958                0.512613983     0.818916291
7.969                0.516759488     0.816522375
7.98                 0.520879867     0.814111544
7.991                0.524975405     0.811683944
8.002                 0.52904638     0.809239712
8.013                0.533093062     0.806778982
8.024                0.537115714     0.804301882
8.035                0.541114592     0.801808536
8.046                0.545089945     0.799299062
8.057                0.549042016     0.796773575
8.068                 0.55297104     0.794232184
8.079                0.556877247     0.791674994
8.09                 0.560760861     0.789102107
8.101                0.564622099     0.786513621
8.112                0.568461173     0.783909627
8.123                0.572278288     0.781290217
8.134                0.576073646     0.778655475
8.145                 0.57984744     0.776005485
8.156                 0.58359986     0.773340326
8.167                0.587331092     0.770660072
8.178                0.591041315     0.767964797
8.189                0.594730702     0.765254569
8.2                  0.598399425     0.762529455
8.211                0.602047648     0.759789518
8.222                0.605675532     0.757034819
8.233                0.609283232     0.754265414
8.244                0.612870901     0.751481359
8.255                0.616438687     0.748682705
8.266                0.619986732     0.745869502
8.277                0.623515175     0.743041796
8.288                0.627024153     0.740199632
8.299                0.630513797     0.737343052
8.31                 0.633984233     0.734472095
8.321                0.637435587     0.731586798
8.332                0.640867979     0.728687197
8.343                0.644281525     0.725773322
8.354                0.647676338     0.722845206
8.365                0.651052528     0.719902875
8.376                0.654410202     0.716946356
8.387                0.657749463     0.713975674
8.398                0.661070411     0.710990848
8.409                0.664373142       0.7079919
8.42                  0.66765775     0.704978847
8.431                0.670924327     0.701951706
8.442                0.674172959     0.698910488
8.453                0.677403731     0.695855208
8.464                0.680616725     0.692785874
8.475                 0.68381202     0.689702496
8.486                0.686989693     0.686605078
8.497                0.690149816     0.683493626
8.508                 0.69329246     0.680368141
8.519                0.696417694     0.677228626
8.53                 0.699525583     0.674075078
8.541                0.702616189     0.670907496
8.552                0.705689573     0.667725873
8.563                0.708745794     0.664530205
8.574                0.711784905     0.661320482
8.585                 0.71480696     0.658096696
8.596                 0.71781201     0.654858833
8.607                0.720800102     0.651606881
8.618                0.723771283     0.648340825
8.629                0.726725595     0.645060648
8.64                  0.72966308      0.64176633
8.651                0.732583775     0.638457852
8.662                0.735487719     0.635135192
8.673                0.738374945     0.631798325
8.684                0.741245484     0.628447226
8.695                0.744099368     0.625081867
8.706                0.746936622     0.621702219
8.717                0.749757273     0.618308252
8.728                0.752561344     0.614899931
8.739                0.755348855     0.611477224
8.75                 0.758119827     0.608040092
8.761                0.760874274     0.604588499
8.772                0.763612212     0.601122404
8.783                0.766333654     0.597641764
8.794                0.769038608     0.594146537
8.805                0.771727085     0.590636676
8.816                0.774399089     0.587112133
8.827                0.777054624      0.58357286
8.838                0.779693692     0.580018805
8.849                0.782316293     0.576449913
8.86                 0.784922425     0.572866131
8.871                0.787512081     0.569267399
8.882                0.790085256     0.565653659
8.893                0.792641941     0.562024848
8.904                0.795182123     0.558380904
8.915                 0.79770579      0.55472176
8.926                0.800212926     0.551047348
8.937                0.802703514     0.547357598
8.948                0.805177532     0.543652437
8.959                0.807634959      0.53993179
8.97                 0.810075769     0.536195581
8.981                0.812499937      0.53244373
8.992                0.814907432     0.528676155
9.003                0.817298223     0.524892771
9.014                0.819672276     0.521093493
9.025                0.822029554     0.517278231
9.036                0.824370018     0.513446893
9.047                0.826693628     0.509599385
9.058                0.829000338     0.505735609
9.069                0.831290103     0.501855466
9.08                 0.833562873     0.497958853
9.091                0.835818596     0.494045666
9.102                0.838057219     0.490115795
9.113                0.840278684      0.48616913
9.124                 0.84248293     0.482205557
9.135                0.844669896     0.478224958
9.146                0.846839515     0.474227213
9.157                0.848991718     0.470212199
9.168                0.851126435     0.466179789
9.179                0.853243589     0.462129854
9.19                 0.855343104     0.458062259
9.201                0.857424898     0.453976868
9.212                0.859488887      0.44987354
9.223                0.861534983     0.445752133
9.234                0.863563094     0.441612497
9.245                0.865573126     0.437454482
9.256                 0.86756498     0.433277933
9.267                0.869538555     0.429082689
9.278                0.871493744     0.424868589
9.289                0.873430437     0.420635464
9.3                  0.875348521     0.416383143
9.311                0.877247877      0.41211145
9.322                0.879128384     0.407820205
9.333                0.880989914     0.403509222
9.344                0.882832337     0.399178313
9.355                0.884655517     0.394827283
9.366                0.886459314     0.390455932
9.377                0.888243581     0.386064057
9.388                 0.89000817     0.381651449
9.399                0.891752923     0.377217892
9.41                 0.893477682     0.372763168
9.421                0.895182278      0.36828705
9.432                 0.89686654     0.363789308
9.443                0.898530289     0.359269704
9.454                0.900173343     0.354727997
9.465                 0.90179551     0.350163937
9.476                0.903396594      0.34557727
9.487                0.904976391     0.340967733
9.498                0.906534691      0.33633506
9.509                0.908071277     0.331678974
9.52                 0.909585923     0.326999196
9.531                0.911078397     0.322295435
9.542                0.912548459     0.317567396
9.553                0.913995859     0.312814776
9.564                0.915420341     0.308037263
9.575                0.916821639     0.303234538
9.586                0.918199478     0.298406276
9.597                0.919553572     0.293552139
9.608                0.920883629     0.288671786
9.619                0.922189343     0.283764862
9.63                 0.923470399     0.278831007
9.641                0.924726472     0.273869849
9.652                0.925957223      0.26888101
9.663                0.927162305     0.263864099
9.674                0.928341355     0.258818716
9.685                0.929493999     0.253744451
9.696                 0.93061985     0.248640884
9.707                0.931718507     0.243507583
9.718                0.932789554     0.238344107
9.729                0.933832561     0.233150001
9.74                 0.934847082     0.227924799
9.751                0.935832655     0.222668025
9.762                0.936788801     0.217379189
9.773                0.937715023     0.212057787
9.784                0.938610807     0.206703304
9.795                 0.93947562     0.201315212
9.806                0.940308908     0.195892968
9.817                0.941110097     0.190436014
9.828                0.941878591      0.18494378
9.839                0.942613772      0.17941568
9.85                 0.943314998     0.173851111
9.861                0.943981603     0.168249457
9.872                0.944612896     0.162610084
9.883                0.945208158     0.156932343
9.894                0.945766642     0.151215566
9.905                0.946287573      0.14545907
9.916                0.946770145     0.139662152
9.927                0.947213519     0.133824092
9.938                0.947616824      0.12794415
9.949                0.947979152     0.122021568
9.96                 0.948299562     0.116055568
9.971                0.948577071      0.11004535
9.982                0.948810657     0.103990096
9.993                0.948999257     0.097888964
10.004               0.949141763    0.0917410928
10.015               0.949237019    0.0855455972
10.026               0.949283824    0.0793015697
10.037               0.949280922    0.0730080797
10.048               0.949227008    0.0666641726
10.059               0.949120717    0.0602688698
10.07                0.948960627    0.0538211677
10.081               0.948745252    0.0473200376
10.092               0.948473045    0.0407644252
10.103               0.948142385    0.0341532501
10.114               0.947751584    0.0274854054
10.125               0.947298875     0.020759757
10.136               0.946782412    0.0139751441
10.147               0.946200266   0.00713037786
10.158               0.945550419  0.000224241937
10.169               0.944830758  -0.00674450817
10.18                0.944039075   -0.0137771451
10.191               0.943173057   -0.0208749697
10.202               0.942230281   -0.0280393111
10.213                0.94120821   -0.0352715264
10.224               0.940104185   -0.0425730008
10.235               0.938915418   -0.0499451467
10.246               0.937638987   -0.0573894037
10.257               0.936271827   -0.0649072377
10.268               0.934810718   -0.0725001401
10.279               0.933252286   -0.0801696268
10.29                0.931592983   -0.0879172366
10.301               0.929829084   -0.0957445299
10.312               0.927956675    -0.103653087
10.323               0.925971641    -0.111644504
10.334               0.923869656    -0.119720395
10.345               0.921646168    -0.127882381
10.356               0.919296389    -0.136132096
10.367               0.916815276    -0.144471175
10.378               0.914197521    -0.152901251
10.389               0.911437532    -0.161423953
10.4                 0.908529417    -0.170040896
10.411               0.905466965    -0.178753676
10.422               0.902243627    -0.187563858
10.433               0.898852495    -0.196472973
10.444               0.895286281      -0.2054825
10.455               0.891537292     -0.21459386
10.466               0.887597408    -0.223808398
10.477               0.883458052     -0.23312737
10.488               0.879110165    -0.242551924
10.499               0.874544175    -0.252083081
10.51                0.869749967    -0.261721709
10.521               0.864716846    -0.271468505
10.532               0.859433506    -0.281323958
10.543               0.853887992     -0.29128832
10.554               0.848067659    -0.301361572
10.565               0.841959131    -0.311543377
10.576                0.83554826     -0.32183304
10.587               0.828820079    -0.332229449
10.598               0.821758757    -0.342731024
10.609               0.814347546    -0.353335644
10.62                0.806568735    -0.364040576
10.631               0.798403595     -0.37484239
10.642               0.789832329     -0.38573687
10.653               0.780834015    -0.396718901
10.664               0.771386555    -0.407782357
10.675               0.761466622    -0.418919969
10.686               0.751049608    -0.430123173
10.697                0.74010958    -0.441381948
10.708               0.728619228    -0.452684631
10.719               0.716549838    -0.464017709
10.73                0.703871256    -0.475365591
10.741               0.690551873    -0.486710354
10.752               0.676558623    -0.498031453
10.763               0.661856997    -0.509305416
10.774               0.646411083     -0.52050549
10.785               0.630183637    -0.531601262
10.796               0.613136183    -0.542558241
10.807               0.595229163    -0.553337398
10.818               0.576422141    -0.563894671
10.829               0.556674063    -0.574180428
10.84                0.535943608    -0.584138892
10.851               0.514189612    -0.593707531
10.862               0.491371619    -0.602816416
10.873               0.467450538    -0.611387559
10.884                0.44238946    -0.619334241
10.895               0.416154633    -0.626560339
10.9                 0.403833544    -0.629578391
10.906               0.388716633     -0.63295969
10.917               0.360051734    -0.638415505
10.928               0.330143526    -0.642799875
10.939               0.298984773    -0.645973427
10.95                0.266579542     -0.64778516
10.961               0.232945602    -0.648072561
10.972               0.198117086    -0.646662056
10.983               0.162147408    -0.643369903
10.994               0.125112368    -0.638003612
11.005              0.0871133931    -0.630364028
11.016                0.04828081    -0.620248141
11.027              0.0087769904    -0.607452772
11.038             -0.0312007998     -0.59177918
11.049             -0.0714180899    -0.573038652
11.06               -0.111601702    -0.551059079
11.071              -0.151439367    -0.525692426
11.082               -0.19058078    -0.496822957
11.093              -0.228640414    -0.464375926
11.104              -0.265202372    -0.428326355
11.115              -0.299827451    -0.388707408
11.126              -0.332062509    -0.345617744
11.137              -0.361451985    -0.299227206
11.148              -0.387551288    -0.249780164
11.159              -0.409941487    -0.197595898
11.17               -0.428244554    -0.143065579
11.181              -0.442138241   -0.0866455774
11.192              -0.451369559   -0.0288471676
11.203              -0.455765876    0.0297770136
11.214              -0.455242718    0.0886490647
11.225              -0.449807659     0.147183527
11.236              -0.439559945     0.204805573
11.247              -0.424685891     0.260968511
11.258              -0.405450451     0.315169489
11.269              -0.382185652     0.366962506
11.28               -0.355276802     0.415968092
11.291              -0.325147497     0.461879348
11.302               -0.29224443     0.504464357
11.313              -0.257022893     0.543565244
11.324              -0.219933706     0.579094393
11.335              -0.181412061     0.611028437
11.346               -0.14186857     0.639400696
11.357              -0.101682598     0.664292719
11.368             -0.0611977808     0.685825503
11.379              -0.020719542      0.70415088
11.39               0.0194857029      0.71944343
11.401              0.0591899517      0.73189317
11.412              0.0982019654     0.741699159
11.423               0.136364858     0.749064089
11.434               0.173553198      0.75418985
11.445               0.209669836     0.757274007
11.456               0.244642649      0.75850712
11.467               0.278421325     0.758070788
11.478               0.310974297     0.756136323
11.489               0.342285876     0.752863935
11.5                 0.372353647     0.748402339
11.511               0.401186114     0.742888697
11.522               0.428800632     0.736448798
11.533               0.455221589     0.729197437
11.544               0.480478842     0.721238919
11.555               0.504606378     0.712667648
11.566               0.527641184     0.703568774
11.577               0.549622299     0.694018853
11.588               0.570590031     0.684086519
11.599               0.590585311     0.673833143
11.61                0.609649175     0.663313461
11.621               0.627822341     0.652576178
11.632               0.645144885     0.641664534
11.643               0.661655982     0.630616831
11.654               0.677393715      0.61946692
11.665               0.692394936     0.608244653
11.676               0.706695162     0.596976292
11.687               0.720328514     0.585684885
11.698               0.733327681     0.574390603
11.709               0.745723908     0.563111052
11.72                0.757546996     0.551861548
11.731               0.768825325     0.540655366
11.742               0.779585883     0.529503972
11.753                 0.7898543     0.518417217
11.764               0.799654896     0.507403521
11.775               0.809010726     0.496470037
11.786               0.817943634     0.485622794
11.797               0.826474299     0.474866825
11.808               0.834622295     0.464206285
11.819               0.842406138     0.453644555
11.83                0.849843345      0.44318433
11.841               0.856950476     0.432827703
11.852               0.863743193      0.42257624
11.863               0.870236303     0.412431039
11.874               0.876443804     0.402392794
11.885               0.882378933     0.392461843
11.896               0.888054207     0.382638213
11.907               0.893481463     0.372921663
11.918               0.898671895     0.363311717
11.929               0.903636094     0.353807698
11.94                0.908384083     0.344408757
11.951               0.912925344     0.335113894
11.962               0.917268856     0.325921985
11.973               0.921423119     0.316831799
11.984               0.925396187     0.307842015
11.995               0.929195686     0.298951241
12.006               0.932828848     0.290158022
12.017               0.936302524     0.281460856
12.028               0.939623216     0.272858204
12.039               0.942797088     0.264348497
12.05                0.945829991     0.255930148
12.061               0.948727479     0.247601556
12.072               0.951494826     0.239361114
12.083               0.954137042     0.231207211
12.094               0.956658887     0.223138243
12.105               0.959064887     0.215152611
12.116               0.961359346     0.207248728
12.127               0.963546356     0.199425023
12.138               0.965629815     0.191679938
12.149               0.967613429     0.184011937
12.16                0.969500732     0.176419504
12.171               0.971295086     0.168901146
12.182               0.972999699     0.161455393
12.193               0.974617628     0.154080801
12.204               0.976151786      0.14677595
12.215               0.977604955     0.139539448
12.226               0.978979789     0.132369931
12.237               0.980278821     0.125266058
12.248               0.981504471     0.118226521
12.259               0.982659051     0.111250035
12.27                 0.98374477     0.104335347
12.281               0.984763739    0.0974812272
12.292               0.985717979    0.0906864768
12.303               0.986609422    0.0839499228
12.314               0.987439916    0.0772704195
12.325               0.988211233     0.070646848
12.336               0.988925066    0.0640781157
12.347                0.98958304    0.0575631564
12.358               0.990186711    0.0511009291
12.369               0.990737571    0.0446904184
12.38                0.991237049    0.0383306336
12.391               0.991686517    0.0320206083
12.402               0.992087293    0.0257593999
12.413               0.992440638    0.0195460894
12.424               0.992747766    0.0133797804
12.435               0.993009842   0.00725959926
12.446               0.993227984   0.00118469396
12.457               0.993403269  -0.00484576596
12.468                0.99353673     -0.01083259
12.479                0.99362936   -0.0167765674
12.49                0.993682117   -0.0226784671
12.501               0.993695919   -0.0285390389