! TOUCHSTONE file generated by CST MICROWAVE STUDIO
! Date and time: Mon Jan 20 16:13:11 2025
! Project name: unitcell.cst
! Parameters = {A=1.32883; AB_sqInv=0.566114; B=0.025494; C0=2.097; Cj=0.228084; Cp=0.075; Ct=0.302746; ImZ=-52.5705; L=10; L1=0.3; Lp=0.35; Lpad=0.75; M=1.199; R=5.41; ReZ=3.06268; Rt=3.06268; V=16; Vj=2.984; W=10; W1=-0.15; W2=-0.15; Wcoop=3.29; Wgap=1; Wline=1.42; Wpad=0.475; Wpadgap=0.35; Xpad1=1.6225; Xpad2=0.7975; Xpad3=1.6225; Xpad4=0.7975; Xvar_centre=1.21; f=0.01; f0=11; fmax=11.25; fmin=10.75; h=0.8; phi=0; th=0.035; theta=0}
! Header version: 2024
! Port assignment regex: !\s*Touchstone port\s*([0-9]+)\s*=\s*(CST MWS port|CST DES external port|CST DES block port)\s*(.+)\s* \(\"(.*)\"\)(\s*mode\s*([0-9]+))?.*
! Touchstone port assignment:
! Touchstone port 1 = CST MWS port Zmax ("") mode 1
! S-Parameters are not renormalized. Unphysical impedance of 0 will be written to the file.
# GHz S RI R 0
6                     0.73038665     0.514406954
6.011                0.736983877     0.495661636
6.022                 0.74321505     0.476124999
6.033                0.749026607     0.455767088
6.044                0.754359096     0.434558697
6.055                0.759146653     0.412471886
6.066                0.763316465     0.389480604
6.077                0.766788228     0.365561442
6.088                0.769473626     0.340694524
6.099                0.771275828     0.314864573
6.11                 0.772089045     0.288062153
6.121                0.771798182     0.260285109
6.132                0.770278608     0.231540238
6.143                0.767396114     0.201845179
6.154                0.763007101     0.171230547
6.165                0.756959087     0.139742298
6.176                0.749091597     0.107444306
6.187                0.739237543    0.0744211252
6.198                0.727225181    0.0407808681
6.209                0.712880751   0.00665810797
6.22                 0.696031897   -0.0277833136
6.231                0.676511948   -0.0623477477
6.242                0.654165113   -0.0968056768
6.253                0.628852609    -0.130892386
6.264                0.600459656    -0.164307661
6.275                0.568903221    -0.196716822
6.286                0.534140262    -0.227753424
6.297                0.496176125    -0.257023904
6.308                0.455072619    -0.284114399
6.319                0.410955191    -0.308599842
6.33                 0.364018521    -0.330055264
6.341                0.314529859    -0.348069049
6.352                0.262829417    -0.362257611
6.363                0.209327304    -0.372280774
6.374                0.154496674    -0.377856891
6.385               0.0988630482    -0.378776638
6.396               0.0429901649    -0.374914372
6.407              -0.0125369856     -0.36623605
6.418              -0.0671309214    -0.352802961
6.429               -0.120221005    -0.334770824
6.44                -0.171272034    -0.312384251
6.451               -0.219800827     -0.28596698
6.462               -0.265389747    -0.255908654
6.473                -0.30769644    -0.222649185
6.484               -0.346459401    -0.186661901
6.495               -0.381499421    -0.148436628
6.506               -0.412717248    -0.108463779
6.517                 -0.4400881   -0.0672202722
6.528               -0.463653782   -0.0251578282
6.539               -0.483513233    0.0173060403
6.55                -0.499812285    0.0597943293
6.561               -0.512733323     0.101974283
6.572               -0.522485384     0.143558875
6.583               -0.529295107     0.184306419
6.594               -0.533398772     0.224018705
6.605                -0.53503556     0.262538093
6.616               -0.534442064     0.299743895
6.627               -0.531847979     0.335548383
6.638               -0.527472887     0.369892667
6.649               -0.521523993     0.402742623
6.66                -0.514194675     0.434085033
6.671               -0.505663686        0.463924
6.682               -0.496094903     0.492277715
6.693               -0.485637471     0.519175582
6.704               -0.474426254     0.544655712
6.715               -0.462582503     0.568762769
6.726               -0.450214655     0.591546144
6.737               -0.437419232     0.613058426
6.748               -0.424281763     0.633354141
6.759               -0.410877725     0.652488727
6.77                -0.397273452     0.670517707
6.781               -0.383527019     0.687496037
6.792               -0.369689071     0.703477603
6.803               -0.355803596     0.718514836
6.814               -0.341908645     0.732658434
6.825               -0.328036989     0.745957158
6.836               -0.314216714     0.758457711
6.847               -0.300471768     0.770204655
6.858               -0.286822445     0.781240383
6.869               -0.273285825     0.791605119
6.88                -0.259876166     0.801336949
6.891               -0.246605255     0.810471865
6.902               -0.233482714     0.819043833
6.913               -0.220516279     0.827084863
6.924               -0.207712046     0.834625091
6.935                -0.19507468     0.841692865
6.946               -0.182607613      0.84831483
6.957               -0.170313207      0.85451602
6.968               -0.158192902     0.860319942
6.979               -0.146247346     0.865748664
6.99                 -0.13447651     0.870822895
7.001               -0.122879787     0.875562072
7.012                -0.11145608     0.879984429
7.023               -0.100203875     0.884107079
7.034              -0.0891213138     0.887946077
7.045              -0.0782062471     0.891516491
7.056               -0.067456288     0.894832464
7.067              -0.0568688557     0.897907271
7.078              -0.0464412138     0.900753379
7.089              -0.0361705036     0.903382493
7.1                -0.0260537735     0.905805613
7.111              -0.0160880034     0.908033073
7.122             -0.00627012685     0.910074586
7.133              0.00340295082     0.911939288
7.144               0.0129343364     0.913635771
7.155               0.0223271351     0.915172117
7.166               0.0315844393     0.916555939
7.177               0.0407093183       0.9177944
7.188               0.0497048103     0.918894251
7.199               0.0585739155     0.919861854
7.21                0.0673195901     0.920703204
7.221               0.0759447421     0.921423958
7.232               0.0844522266      0.92202945
7.243               0.0928448438     0.922524718
7.254                0.101125336     0.922914518
7.265                0.109296385     0.923203341
7.276                0.117360613     0.923395433
7.287                0.125320579     0.923494808
7.298                0.133178781     0.923505261
7.309                0.140937655     0.923430383
7.32                 0.148599572     0.923273576
7.331                0.156166844     0.923038057
7.342                0.163641719     0.922726876
7.353                0.171026386     0.922342923
7.364                0.178322973     0.921888938
7.375                 0.18553355     0.921367519
7.386                0.192660128     0.920781132
7.397                0.199704662     0.920132116
7.408                 0.20666905     0.919422694
7.419                0.213555137     0.918654975
7.43                 0.220364714     0.917830966
7.441                 0.22709952     0.916952572
7.452                0.233761245     0.916021606
7.463                0.240351526     0.915039793
7.474                0.246871957     0.914008772
7.485                 0.25332408     0.912930106
7.496                0.259709397     0.911805283
7.507                 0.26602936     0.910635718
7.518                0.272285384     0.909422763
7.529                0.278478837     0.908167704
7.54                 0.284611051     0.906871767
7.551                0.290683316     0.905536124
7.562                0.296696886     0.904161892
7.573                0.302652975     0.902750135
7.584                0.308552764     0.901301872
7.595                0.314397399     0.899818075
7.606                0.320187991     0.898299672
7.617                0.325925619      0.89674755
7.628                0.331611332     0.895162557
7.639                0.337246146     0.893545504
7.65                 0.342831049     0.891897167
7.661                   0.348367     0.890218287
7.672                0.353854928     0.888509574
7.683                0.359295739     0.886771709
7.694                0.364690309      0.88500534
7.705                0.370039492     0.883211093
7.716                0.375344115     0.881389562
7.727                0.380604983     0.879541321
7.738                0.385822876     0.877666917
7.749                0.390998553     0.875766875
7.76                 0.396132752     0.873841699
7.771                0.401226189     0.871891873
7.782                0.406279561     0.869917859
7.793                0.411293543     0.867920101
7.804                0.416268792     0.865899028
7.815                0.421205949     0.863855047
7.826                0.426105633     0.861788552
7.837                0.430968449      0.85969992
7.848                0.435794983     0.857589514
7.859                0.440585806     0.855457681
7.87                 0.445341473     0.853304756
7.881                0.450062522      0.85113106
7.892                0.454749479     0.848936902
7.903                0.459402854     0.846722578
7.914                0.464023142     0.844488373
7.925                0.468610826     0.842234561
7.936                0.473166376     0.839961406
7.947                0.477690248     0.837669161
7.958                0.482182886     0.835358069
7.969                0.486644722     0.833028365
7.98                 0.491076177     0.830680274
7.991                 0.49547766     0.828314012
8.002                0.499849568     0.825929787
8.013                 0.50419229       0.8235278
8.024                0.508506201     0.821108244
8.035                 0.51279167     0.818671304
8.046                0.517049052     0.816217158
8.057                0.521278695     0.813745977
8.068                0.525480938     0.811257926
8.079                0.529656108     0.808753165
8.09                 0.533804528     0.806231845
8.101                0.537926509     0.803694112
8.112                0.542022353     0.801140109
8.123                0.546092357      0.79856997
8.134                0.550136809     0.795983825
8.145                0.554155987       0.7933818
8.156                0.558150166     0.790764014
8.167                0.562119609     0.788130584
8.178                0.566064576      0.78548162
8.189                0.569985318     0.782817229
8.2                  0.573882079     0.780137512
8.211                0.577755098     0.777442568
8.222                0.581604607      0.77473249
8.233                 0.58543083      0.77200737
8.244                0.589233989     0.769267292
8.255                0.593014297      0.76651234
8.266                0.596771961     0.763742593
8.277                0.600507185     0.760958126
8.288                0.604220165     0.758159012
8.299                0.607911093     0.755345319
8.31                 0.611580157     0.752517114
8.321                0.615227536     0.749674459
8.332                0.618853408     0.746817414
8.343                0.622457945     0.743946036
8.354                0.626041313     0.741060378
8.365                0.629603675     0.738160493
8.376                0.633145189     0.735246428
8.387                0.636666008     0.732318229
8.398                0.640166282     0.729375939
8.409                0.643646155       0.7264196
8.42                 0.647105769      0.72344925
8.431                0.650545261     0.720464923
8.442                0.653964762     0.717466655
8.453                0.657364403     0.714454475
8.464                0.660744309     0.711428412
8.475                0.664104601     0.708388494
8.486                0.667445397     0.705334745
8.497                0.670766811     0.702267186
8.508                0.674068956     0.699185838
8.519                0.677351937     0.696090719
8.53                 0.680615859     0.692981845
8.541                0.683860824     0.689859229
8.552                0.687086928     0.686722883
8.563                0.690294267     0.683572818
8.574                 0.69348293     0.680409041
8.585                0.696653008     0.677231557
8.596                0.699804584     0.674040372
8.607                0.702937742     0.670835487
8.618                 0.70605256     0.667616902
8.629                0.709149115     0.664384615
8.64                 0.712227481     0.661138624
8.651                0.715287728     0.657878922
8.662                0.718329925     0.654605502
8.673                0.721354137     0.651318356
8.684                0.724360426     0.648017472
8.695                0.727348854     0.644702837
8.706                0.730319476     0.641374438
8.717                0.733272348     0.638032256
8.728                0.736207522     0.634676276
8.739                0.739125049     0.631306475
8.75                 0.742024974     0.627922832
8.761                0.744907344     0.624525324
8.772                  0.7477722     0.621113926
8.783                0.750619582     0.617688609
8.794                0.753449528     0.614249344
8.805                0.756262072     0.610796101
8.816                0.759057248     0.607328847
8.827                0.761835086     0.603847546
8.838                0.764595613     0.600352163
8.849                0.767338856     0.596842658
8.86                 0.770064837     0.593318991
8.871                0.772773577      0.58978112
8.882                0.775465096     0.586229001
8.893                0.778139408     0.582662586
8.904                0.780796529     0.579081829
8.915                 0.78343647     0.575486678
8.926                 0.78605924     0.571877082
8.937                0.788664847     0.568252985
8.948                0.791253295     0.564614333
8.959                0.793824586     0.560961066
8.97                  0.79637872     0.557293123
8.981                0.798915696     0.553610442
8.992                0.801435508     0.549912959
9.003                 0.80393815     0.546200605
9.014                0.806423612     0.542473313
9.025                0.808891883     0.538731009
9.036                0.811342948      0.53497362
9.047                 0.81377679      0.53120107
9.058                0.816193392      0.52741328
9.069                 0.81859273     0.523610169
9.08                 0.820974783     0.519791653
9.091                0.823339521     0.515957647
9.102                0.825686918     0.512108062
9.113                0.828016941     0.508242806
9.124                0.830329556     0.504361786
9.135                0.832624726     0.500464905
9.146                0.834902412     0.496552064
9.157                0.837162572     0.492623161
9.168                0.839405159     0.488678091
9.179                0.841630128     0.484716746
9.19                 0.843837426     0.480739014
9.201                0.846027001     0.476744784
9.212                0.848198795     0.472733936
9.223                 0.85035275     0.468706352
9.234                0.852488803     0.464661908
9.245                0.854606888     0.460600477
9.256                0.856706936     0.456521929
9.267                0.858788875     0.452426131
9.278                0.860852629     0.448312946
9.289                0.862898121     0.444182234
9.3                  0.864925267      0.44003385
9.311                0.866933981     0.435867646
9.322                0.868924174     0.431683471
9.333                0.870895753     0.427481168
9.344                0.872848621     0.423260578
9.355                0.874782676     0.419021538
9.366                0.876697814     0.414763879
9.377                0.878593925     0.410487429
9.388                0.880470896      0.40619201
9.399                 0.88232861     0.401877443
9.41                 0.884166944      0.39754354
9.421                0.885985771     0.393190112
9.432                 0.88778496     0.388816962
9.443                0.889564374      0.38442389
9.454                0.891323872     0.380010691
9.465                0.893063308     0.375577154
9.476                0.894782529     0.371123063
9.487                0.896481379     0.366648195
9.498                0.898159694     0.362152324
9.509                0.899817305     0.357635216
9.52                 0.901454038     0.353096634
9.531                0.903069712      0.34853633
9.542                0.904664138     0.343954055
9.553                0.906237124     0.339349551
9.564                0.907788468     0.334722552
9.575                0.909317961     0.330072789
9.586                 0.91082539     0.325399983
9.597                 0.91231053     0.320703849
9.608                0.913773151     0.315984096
9.619                0.915213015     0.311240422
9.63                 0.916629874     0.306472522
9.641                0.918023472     0.301680078
9.652                0.919393543     0.296862769
9.663                0.920739815     0.292020262
9.674                0.922062002     0.287152217
9.685                0.923359811     0.282258284
9.696                0.924632937     0.277338106
9.707                0.925881065     0.272391315
9.718                0.927103868     0.267417535
9.729                0.928301008     0.262416379
9.74                 0.929472134     0.257387449
9.751                0.930616884     0.252330339
9.762                0.931734881     0.247244632
9.773                0.932825735     0.242129898
9.784                0.933889043     0.236985699
9.795                0.934924386     0.231811581
9.806                0.935931328     0.226607084
9.817                0.936909422      0.22137173
9.828                0.937858199     0.216105032
9.839                0.938777175      0.21080649
9.85                 0.939665849     0.205475589
9.861                0.940523699     0.200111802
9.872                0.941350184     0.194714587
9.883                0.942144743     0.189283389
9.894                0.942906793     0.183817636
9.905                0.943635729     0.178316744
9.916                0.944330923     0.172780109
9.927                0.944991722     0.167207115
9.938                0.945617447     0.161597128
9.949                0.946207394     0.155949497
9.96                  0.94676083     0.150263554
9.971                0.947276994     0.144538612
9.982                0.947755092     0.138773966
9.993                  0.9481943     0.132968894
10.004               0.948593762     0.127122653
10.015               0.948952584     0.121234479
10.026               0.949269838      0.11530359
10.037               0.949544557     0.109329183
10.048               0.949775732      0.10331043
10.059               0.949962315    0.0972464862
10.07                0.950103211    0.0911364801
10.081                0.95019728     0.084979519
10.092               0.950243333     0.078774686
10.103                0.95024013    0.0725210402
10.114               0.950186378    0.0662176158
10.125               0.950080726    0.0598634215
10.136               0.949921766    0.0534574404
10.147               0.949708025    0.0469986289
10.158               0.949437966    0.0404859166
10.169               0.949109983    0.0339182055
10.18                0.948722398    0.0272943696
10.191               0.948273455    0.0206132547
10.202               0.947761318    0.0138736772
10.213               0.947184067   0.00707442462
10.224               0.946539693  0.000214254626
10.235                0.94582609  -0.00670810511
10.246               0.945041055   -0.0136939572
10.257               0.944182279   -0.0207446345
10.268               0.943247344   -0.0278615009
10.279               0.942233713   -0.0350459503
10.29                0.941138726   -0.0422994074
10.301               0.939959592   -0.0496233272
10.312               0.938693384   -0.0570191944
10.323               0.937337026   -0.0644885233
10.334                0.93588729   -0.0720328568
10.345               0.934340784   -0.0796537655
10.356               0.932693942   -0.0873528469
10.367               0.930943017   -0.0951317234
10.378               0.929084065    -0.102992041
10.389               0.927112939    -0.110935467
10.4                 0.925025273    -0.118963688
10.411                0.92281647    -0.127078406
10.422               0.920481686    -0.135281336
10.433               0.918015821    -0.143574201
10.444               0.915413495    -0.151958728
10.455               0.912669036    -0.160436643
10.466               0.909776462    -0.169009663
10.477               0.906729459    -0.177679492
10.488               0.903521361    -0.186447808
10.499               0.900145131    -0.195316259
10.51                0.896593333    -0.204286448
10.521               0.892858111    -0.213359922
10.532               0.888931158    -0.222538161
10.543               0.884803694    -0.231822556
10.554               0.880466428    -0.241214395
10.565               0.875909532    -0.250714844
10.576               0.871122606    -0.260324918
10.587               0.866094636     -0.27004546
10.598               0.860813966    -0.279877108
10.609               0.855268248    -0.289820263
10.62                0.849444402    -0.299875048
10.631               0.843328574    -0.310041268
10.642               0.836906084    -0.320318358
10.653               0.830161377    -0.330705327
10.664               0.823077972    -0.341200702
10.675               0.815638407    -0.351802446
10.686                0.80782418    -0.362507891
10.697               0.799615695    -0.373313637
10.708               0.790992199    -0.384215458
10.719               0.781931721    -0.395208186
10.73                0.772411013     -0.40628558
10.741               0.762405487    -0.417440185
10.752               0.751889159     -0.42866317
10.763                0.74083459    -0.439944141
10.774               0.729212836    -0.451270943
10.785               0.716993405    -0.462629426
10.796               0.704144216    -0.474003193
10.807               0.690631581    -0.485373312
10.818               0.676420199    -0.496717995
10.829               0.661473164    -0.508012253
10.84                0.645752012    -0.519227492
10.851               0.629216795    -0.530331089
10.862               0.611826193     -0.54128591
10.873               0.593537687    -0.552049788
10.884               0.574307782    -0.562574955
10.895               0.554092322    -0.572807422
10.9                 0.544565655    -0.577345592
10.906                0.53284688    -0.582686322
10.917               0.510527264    -0.592143201
10.928               0.487090159     -0.60110128
10.939               0.462493903     -0.60947469
10.95                0.436699457    -0.617167695
10.961               0.409671563    -0.624073926
10.972               0.381380143    -0.630075657
10.983               0.351801944    -0.635043145
10.994               0.320922477    -0.638834111
11.005               0.288738255     -0.64129339
11.016               0.255259351    -0.642252844
11.027               0.220512285    -0.641531625
11.038               0.184543216    -0.638936881
11.049               0.147421412    -0.634265034
11.06                0.109242931    -0.627303756
11.071              0.0701343964    -0.617834769
11.082              0.0302567398    -0.605637613
11.093             -0.0101913191    -0.590494486
11.104             -0.0509702981    -0.572196237
11.115             -0.0917978074    -0.550549552
11.126                -0.1323476    -0.525385259
11.137              -0.172250214     -0.49656761
11.148              -0.211095606    -0.464004248
11.159               -0.24843814    -0.427656425
11.17               -0.283804199    -0.387548884
11.181              -0.316702545    -0.343778695
11.192              -0.346637323    -0.296522238
11.203              -0.373123378    -0.246039476
11.214              -0.395703233    -0.192674773
11.225               -0.41396482    -0.136853633
11.236              -0.427558824   -0.0790750433
11.247              -0.436214392     -0.01989947
11.258              -0.439751924    0.0400670475
11.269              -0.438091885     0.100191836
11.28               -0.431258827     0.159836364
11.291              -0.419380261     0.218377437
11.302              -0.402680473     0.275227355
11.313              -0.381469842     0.329851689
11.324              -0.356130599     0.381783599
11.335              -0.327100196     0.430634001
11.346              -0.294853576     0.476097298
11.357              -0.259885565     0.517952794
11.368              -0.222694451     0.556062259
11.379              -0.183767548     0.590364315
11.39                -0.14356926     0.620866476
11.401              -0.102531888     0.647635684
11.412             -0.0610491768      0.67078811
11.423             -0.0194723931     0.690478899
11.434              0.0218913649     0.706892382
11.445              0.0627790297     0.720233126
11.456               0.102969997     0.730718046
11.467               0.142283523     0.738569701
11.478               0.180575434     0.744010781
11.489               0.217734452     0.747259733
11.5                 0.253678356     0.748527425
11.511               0.288350186     0.748014729
11.522               0.321714601     0.745910877
11.533               0.353754486     0.742392463
11.544               0.384467858     0.737622965
11.555                 0.4138651     0.731752669
11.566               0.441966521     0.724918906
11.577               0.468800239     0.717246501
11.588                0.49440036     0.708848392
11.599               0.518805443     0.699826332
11.61                0.542057197     0.690271668
11.621               0.564199415      0.68026612
11.632                0.58527709      0.66988258
11.643                 0.6053357     0.659185879
11.654               0.624420635     0.648233522
11.665               0.642576745     0.637076391
11.676               0.659847992      0.62575939
11.687               0.676277178     0.614322057
11.698               0.691905756     0.602799113
11.709               0.706773684     0.591220975
11.72                0.720919338     0.579614216
11.731               0.734379457     0.568001987
11.742               0.747189118     0.556404392
11.753               0.759381735      0.54483883
11.764               0.770989079     0.533320304
11.775               0.782041311     0.521861689
11.786               0.792567024     0.510473981
11.797               0.802593295     0.499166518
11.808               0.812145743     0.487947169
11.819               0.821248587     0.476822511
11.83                0.829924709     0.465797986
11.841               0.838195719     0.454878032
11.852               0.846082016      0.44406621
11.863               0.853602853     0.433365312
11.874               0.860776394     0.422777454
11.885               0.867619776     0.412304163
11.896               0.874149168     0.401946452
11.907               0.880379821     0.391704885
11.918               0.886326125      0.38157964
11.929               0.892001656     0.371570557
11.94                0.897419226     0.361677187
11.951               0.902590926      0.35189883
11.962               0.907528173     0.342234573
11.973               0.912241744     0.332683323
11.984               0.916741819     0.323243831
11.995               0.921038013      0.31391472
12.006               0.925139416     0.304694504
12.017               0.929054617     0.295581611
12.028               0.932791739     0.286574396
12.039               0.936358466     0.277671158
12.05                0.939762068     0.268870151
12.061               0.943009426     0.260169598
12.072               0.946107058     0.251567697
12.083               0.949061134     0.243062634
12.094               0.951877505     0.234652586
12.105               0.954561714     0.226335734
12.116               0.957119019     0.218110259
12.127               0.959554408     0.209974357
12.138               0.961872614     0.201926236
12.149               0.964078132     0.193964121
12.16                 0.96617523     0.186086262
12.171               0.968167962     0.178290927
12.182               0.970060184     0.170576415
12.193               0.971855561     0.162941049
12.204               0.973557578     0.155383183
12.215               0.975169555     0.147901198
12.226               0.976694648     0.140493509
12.237               0.978135865     0.133158562
12.248               0.979496073     0.125894833
12.259                  0.980778     0.118700833
12.27                0.981984251     0.111575103
12.281               0.983117309      0.10451622
12.292               0.984179543      0.09752279
12.303               0.985173214    0.0905934535
12.314                0.98610048    0.0837268825
12.325               0.986963405     0.076921781
12.336               0.987763958    0.0701768845
12.347               0.988504023    0.0634909594
12.358               0.989185401    0.0568628027
12.369               0.989809813    0.0502912417
12.38                0.990378909     0.043775133
12.391               0.990894266    0.0373133626
12.402               0.991357394    0.0309048445
12.413               0.991769741    0.0245485209
12.424               0.992132692    0.0182433611
12.435               0.992447577    0.0119883613
12.446               0.992715669   0.00578254361
12.457                0.99293819 -0.000375044399
12.468               0.993116314   -0.0064853302
12.479               0.993251164    -0.012549217
12.49                0.993343822   -0.0185675844
12.501               0.993395324   -0.0245412888