! TOUCHSTONE file generated by CST MICROWAVE STUDIO
! Date and time: Mon Jan 20 16:13:11 2025
! Project name: unitcell.cst
! Parameters = {A=1.3497; AB_sqInv=0.548744; B=0.025494; C0=2.097; Cj=0.214469; Cp=0.075; Ct=0.289174; ImZ=-55.0378; L=10; L1=0.3; Lp=0.35; Lpad=0.75; M=1.199; R=5.41; ReZ=2.9687; Rt=2.9687; V=17; Vj=2.984; W=10; W1=-0.15; W2=-0.15; Wcoop=3.29; Wgap=1; Wline=1.42; Wpad=0.475; Wpadgap=0.35; Xpad1=1.6225; Xpad2=0.7975; Xpad3=1.6225; Xpad4=0.7975; Xvar_centre=1.21; f=0.01; f0=11; fmax=11.25; fmin=10.75; h=0.8; phi=0; th=0.035; theta=0}
! Header version: 2024
! Port assignment regex: !\s*Touchstone port\s*([0-9]+)\s*=\s*(CST MWS port|CST DES external port|CST DES block port)\s*(.+)\s* \(\"(.*)\"\)(\s*mode\s*([0-9]+))?.*
! Touchstone port assignment:
! Touchstone port 1 = CST MWS port Zmax ("") mode 1
! S-Parameters are not renormalized. Unphysical impedance of 0 will be written to the file.
# GHz S RI R 0
6                    0.696039396     0.619962032
6.011                0.703966334     0.606478847
6.022                0.711799262     0.592458399
6.033                  0.7195179     0.577876241
6.044                0.727099569     0.562707047
6.055                0.734518929     0.546924655
6.066                0.741747698     0.530502138
6.077                0.748754345     0.513411903
6.088                0.755503754     0.495625817
6.099                0.761956861     0.477115375
6.11                 0.768070264     0.457851917
6.121                0.773795805     0.437806893
6.132                0.779080127     0.416952196
6.143                0.783864205     0.395260575
6.154                0.788082866     0.372706125
6.165                0.791664292     0.349264894
6.176                0.794529519     0.324915591
6.187                0.796591959     0.299640446
6.198                0.797756938     0.273426204
6.209                0.797921297       0.2462653
6.22                 0.796973072      0.21815721
6.231                0.794791288     0.189110011
6.242                0.791245923     0.159142143
6.253                0.786198083     0.128284395
6.264                0.779500462    0.0965821042
6.275                0.770998153    0.0640975534
6.286                 0.76052989     0.030912538
6.297                0.747929825  -0.00286894732
6.308                0.733029908   -0.0371179834
6.319                0.715662979   -0.0716780689
6.33                 0.695666642    -0.106362675
6.341                0.672887979    -0.140953199
6.352                0.647189125    -0.175197532
6.363                0.618453676    -0.208809508
6.374                0.586593837    -0.241469518
6.385                0.551558106    -0.272826574
6.396                0.513339229    -0.302502114
6.407                0.471982014    -0.330095775
6.418                0.427590507    -0.355193265
6.429                 0.38033395     -0.37737636
6.44                 0.330450865    -0.396234841
6.451                0.278250641    -0.411380008
6.462                0.224112061    -0.422459172
6.473                0.168478379    -0.429170336
6.484                0.111848763    -0.431276112
6.495                0.054766271    -0.428615837
6.506             -0.00219720164    -0.421114913
6.517              -0.0584581962    -0.408790508
6.528               -0.113440154    -0.391753056
6.539               -0.166591861    -0.370203316
6.55                -0.217404658    -0.344425142
6.561               -0.265427285    -0.314774511
6.572               -0.310277497    -0.281665637
6.583               -0.351649882    -0.245555218
6.594               -0.389319673    -0.206925956
6.605               -0.423142717    -0.166270392
6.616               -0.453052002    -0.124076023
6.627               -0.479051407   -0.0808123622
6.638               -0.501207415   -0.0369204295
6.649               -0.519639558   0.00719516693
6.66                -0.534510319    0.0511715547
6.671               -0.546015103    0.0946905354
6.682               -0.554372764     0.137479445
6.693                -0.55981702     0.179310308
6.704               -0.562588969      0.21999769
6.715               -0.562930805     0.259395609
6.726               -0.561080728     0.297393854
6.737               -0.557268987     0.333914003
6.748               -0.551714952     0.368905344
6.759               -0.544625091     0.402340901
6.77                -0.536191695     0.434213671
6.781               -0.526592228     0.464533149
6.792               -0.515989171     0.493322205
6.803               -0.504530246     0.520614307
6.814                -0.49234891     0.546451105
6.825               -0.479565058     0.570880363
6.836               -0.466285843     0.593954197
6.847                -0.45260658     0.615727608
6.858               -0.438611672     0.636257272
6.869               -0.424375551     0.655600556
6.88                 -0.40996358     0.673814722
6.891               -0.395432933     0.690956311
6.902               -0.380833418     0.707080654
6.913               -0.366208239     0.722241514
6.924               -0.351594718     0.736490814
6.935               -0.337024936     0.749878456
6.946                -0.32252633     0.762452203
6.957               -0.308122232     0.774257605
6.968               -0.293832351      0.78533798
6.979               -0.279673208      0.79573442
6.99                -0.265658526     0.805485822
7.001               -0.251799574     0.814628946
7.012               -0.238105481     0.823198473
7.023               -0.224583503     0.831227091
7.034               -0.211239273     0.838745572
7.045               -0.198077008     0.845782862
7.056               -0.185099705     0.852366171
7.067               -0.172309304     0.858521063
7.078               -0.159706836     0.864271544
7.089               -0.147292553     0.869640153
7.1                 -0.135066038     0.874648044
7.111               -0.123026311     0.879315066
7.122               -0.111171908     0.883659848
7.133              -0.0995009627      0.88769987
7.144              -0.0880112727     0.891451534
7.155              -0.0767003551     0.894930235
7.166              -0.0655654988     0.898150421
7.177              -0.0546038081     0.901125655
7.188              -0.0438122413     0.903868675
7.199              -0.0331876434     0.906391441
7.21               -0.0227267755     0.908705189
7.221              -0.0124263386      0.91082048
7.232             -0.00228299619     0.912747237
7.243              0.00770660848     0.914494793
7.254                0.017545836     0.916071925
7.265               0.0272380376     0.917486892
7.276               0.0367865439     0.918747468
7.287                0.046194655     0.919860972
7.298               0.0554656327     0.920834297
7.309               0.0646026935     0.921673941
7.32                0.0736090034     0.922386026
7.331                0.082487673     0.922976328
7.342                0.091241754     0.923450294
7.353               0.0998742365     0.923813065
7.364                0.108388047     0.924069496
7.375                0.116786045      0.92422417
7.386                0.125071025     0.924281421
7.397                0.133245714     0.924245341
7.408                0.141312771     0.924119804
7.419                0.149274787     0.923908472
7.43                 0.157134285     0.923614812
7.441                0.164893722     0.923242105
7.452                0.172555491      0.92279346
7.463                0.180121915     0.922271821
7.474                0.187595255      0.92167998
7.485                0.194977711     0.921020585
7.496                0.202271417     0.920296144
7.507                0.209478449     0.919509041
7.518                0.216600821     0.918661537
7.529                0.223640492     0.917755779
7.54                 0.230599361     0.916793809
7.551                0.237479273     0.915777564
7.562                0.244282021     0.914708887
7.573                0.251009342     0.913589531
7.584                0.257662924     0.912421163
7.595                0.264244405     0.911205371
7.606                0.270755374     0.909943664
7.617                0.277197374      0.90863748
7.628                0.283571903     0.907288191
7.639                0.289880411     0.905897101
7.65                 0.296124311     0.904465456
7.661                0.302304969     0.902994441
7.672                0.308423714     0.901485189
7.683                0.314481834     0.899938779
7.694                 0.32048058     0.898356243
7.705                0.326421165     0.896738564
7.716                0.332304769     0.895086681
7.727                0.338132534     0.893401493
7.738                 0.34390557     0.891683857
7.749                0.349624957     0.889934592
7.76                 0.355291739     0.888154482
7.771                0.360906933     0.886344277
7.782                0.366471525     0.884504693
7.793                0.371986473     0.882636416
7.804                0.377452706     0.880740102
7.815                 0.38287113     0.878816379
7.826                 0.38824262      0.87686585
7.837                0.393568029     0.874889089
7.848                0.398848185      0.87288665
7.859                0.404083893      0.87085906
7.87                 0.409275932     0.868806826
7.881                0.414425064     0.866730434
7.892                0.419532026      0.86463035
7.903                0.424597534      0.86250702
7.914                0.429622286     0.860360873
7.925                0.434606959     0.858192319
7.936                 0.43955221     0.856001752
7.947                0.444458681      0.85378955
7.958                0.449326994     0.851556078
7.969                0.454157753     0.849301682
7.98                 0.458951547     0.847026698
7.991                0.463708947     0.844731448
8.002                 0.46843051     0.842416238
8.013                0.473116778     0.840081367
8.024                0.477768275     0.837727117
8.035                0.482385515     0.835353764
8.046                0.486968995     0.832961569
8.057                0.491519199     0.830550785
8.068                  0.4960366     0.828121654
8.079                0.500521654     0.825674409
8.09                  0.50497481     0.823209275
8.101                  0.5093965     0.820726467
8.112                0.513787147      0.81822619
8.123                0.518147163     0.815708645
8.134                0.522476947     0.813174023
8.145                 0.52677689     0.810622506
8.156                 0.53104737     0.808054271
8.167                0.535288756     0.805469489
8.178                0.539501408     0.802868321
8.189                0.543685675     0.800250924
8.2                  0.547841898      0.79761745
8.211                0.551970407     0.794968041
8.222                0.556071527     0.792302838
8.233                 0.56014557     0.789621973
8.244                0.564192843     0.786925575
8.255                0.568213642     0.784213765
8.266                 0.57220826     0.781486663
8.277                0.576176976     0.778744381
8.288                0.580120067     0.775987027
8.299                0.584037799     0.773214706
8.31                 0.587930433     0.770427517
8.321                0.591798223     0.767625556
8.332                0.595641416     0.764808915
8.343                0.599460251     0.761977679
8.354                0.603254963     0.759131935
8.365                 0.60702578      0.75627176
8.376                0.610772923     0.753397233
8.387                0.614496608     0.750508425
8.398                0.618197046     0.747605406
8.409                0.621874439     0.744688244
8.42                 0.625528989     0.741756999
8.431                0.629160887     0.738811734
8.442                0.632770323     0.735852504
8.453                 0.63635748     0.732879364
8.464                0.639922536     0.729892364
8.475                0.643465664     0.726891554
8.486                0.646987033     0.723876979
8.497                0.650486807     0.720848681
8.508                0.653965146     0.717806701
8.519                0.657422205     0.714751077
8.53                 0.660858133     0.711681844
8.541                0.664273078     0.708599035
8.552                0.667667182      0.70550268
8.563                0.671040583     0.702392808
8.574                0.674393415     0.699269444
8.585                0.677725808     0.696132611
8.596                0.681037889     0.692982331
8.607                 0.68432978     0.689818623
8.618                0.687601601     0.686641504
8.629                0.690853466     0.683450989
8.64                 0.694085487      0.68024709
8.651                0.697297773     0.677029818
8.662                0.700490428     0.673799182
8.673                0.703663554     0.670555188
8.684                 0.70681725      0.66729784
8.695                0.709951609     0.664027141
8.706                0.713066724     0.660743093
8.717                0.716162683     0.657445692
8.728                0.719239572     0.654134937
8.739                0.722297473     0.650810822
8.75                 0.725336466      0.64747334
8.761                0.728356627     0.644122481
8.772                 0.73135803     0.640758236
8.783                0.734340745      0.63738059
8.794                 0.73730484     0.633989531
8.805                 0.74025038      0.63058504
8.816                0.743177427       0.6271671
8.827                0.746086041      0.62373569
8.838                0.748976279     0.620290788
8.849                0.751848194     0.616832371
8.86                 0.754701838     0.613360412
8.871                0.757537261     0.609874883
8.882                0.760354507     0.606375756
8.893                 0.76315362     0.602862997
8.904                0.765934642     0.599336575
8.915                0.768697612     0.595796452
8.926                0.771442564     0.592242593
8.937                0.774169532     0.588674958
8.948                0.776878547     0.585093506
8.959                0.779569638     0.581498193
8.97                 0.782242829     0.577888974
8.981                0.784898146     0.574265803
8.992                0.787535608     0.570628629
9.003                0.790155234     0.566977402
9.014                 0.79275704     0.563312069
9.025                0.795341039     0.559632574
9.036                0.797907242     0.555938859
9.047                0.800455658     0.552230865
9.058                0.802986293     0.548508529
9.069                 0.80549915     0.544771789
9.08                  0.80799423     0.541020578
9.091                0.810471532     0.537254826
9.102                0.812931052     0.533474464
9.113                0.815372783     0.529679418
9.124                0.817796716     0.525869612
9.135                 0.82020284     0.522044969
9.146                 0.82259114     0.518205408
9.157                0.824961599     0.514350846
9.168                0.827314198     0.510481198
9.179                0.829648915     0.506596376
9.19                 0.831965724     0.502696289
9.201                0.834264598     0.498780844
9.212                0.836545507     0.494849945
9.223                0.838808418     0.490903493
9.234                0.841053295     0.486941386
9.245                0.843280098     0.482963519
9.256                0.845488787     0.478969786
9.267                0.847679316     0.474960076
9.278                0.849851638     0.470934276
9.289                0.852005701     0.466892267
9.3                  0.854141453     0.462833932
9.311                0.856258836     0.458759146
9.322                 0.85835779     0.454667783
9.333                0.860438251     0.450559713
9.344                0.862500152     0.446434804
9.355                0.864543423     0.442292917
9.366                0.866567991     0.438133912
9.377                0.868573777     0.433957646
9.388                0.870560701     0.429763969
9.399                0.872528678      0.42555273
9.41                 0.874477619     0.421323774
9.421                0.876407432     0.417076939
9.432                0.878318021     0.412812062
9.443                0.880209284     0.408528974
9.454                0.882081116     0.404227502
9.465                 0.88393341     0.399907469
9.476                0.885766049     0.395568693
9.487                0.887578917     0.391210987
9.498                0.889371891     0.386834159
9.509                0.891144842     0.382438014
9.52                 0.892897639     0.378022349
9.531                0.894630142     0.373586957
9.542                0.896342209     0.369131628
9.553                 0.89803369     0.364656142
9.564                0.899704433     0.360160278
9.575                0.901354277     0.355643805
9.586                0.902983055      0.35110649
9.597                0.904590597      0.34654809
9.608                0.906176722      0.34196836
9.619                0.907741247     0.337367045
9.63                 0.909283979     0.332743886
9.641                 0.91080472     0.328098615
9.652                0.912303264      0.32343096
9.663                0.913779396     0.318740638
9.674                0.915232897     0.314027363
9.685                0.916663535     0.309290838
9.696                0.918071075      0.30453076
9.707                0.919455269     0.299746818
9.718                0.920815863     0.294938693
9.729                0.922152592     0.290106057
9.74                 0.923465182     0.285248574
9.751                 0.92475335     0.280365899
9.762                  0.9260168     0.275457677
9.773                0.927255229     0.270523546
9.784                0.928468319     0.265563132
9.795                0.929655744     0.260576053
9.806                0.930817164     0.255561915
9.817                0.931952226     0.250520316
9.828                0.933060566     0.245450841
9.839                0.934141805     0.240353065
9.85                 0.935195551     0.235226551
9.861                0.936221396     0.230070853
9.872                0.937218917     0.224885509
9.883                0.938187677     0.219670048
9.894                0.939127221     0.214423984
9.905                0.940037077      0.20914682
9.916                0.940916755     0.203838044
9.927                0.941765746      0.19849713
9.938                0.942583522      0.19312354
9.949                0.943369535      0.18771672
9.96                 0.944123215     0.182276099
9.971                 0.94484397     0.176801095
9.982                0.945531185     0.171291106
9.993                0.946184221     0.165745515
10.004               0.946802413      0.16016369
10.015               0.947385069     0.154544978
10.026               0.947931472     0.148888713
10.037               0.948440873     0.143194206
10.048               0.948912495     0.137460751
10.059               0.949345528     0.131687625
10.07                0.949739128     0.125874081
10.081               0.950092418     0.120019355
10.092               0.950404483     0.114122659
10.103               0.950674371     0.108183186
10.114                0.95090109     0.102200106
10.125               0.951083604     0.096172566
10.136               0.951220834    0.0900996896
10.147               0.951311656    0.0839805767
10.158               0.951354894    0.0778143025
10.169               0.951349324    0.0715999172
10.18                0.951293666     0.065336445
10.191               0.951186585    0.0590228837
10.202               0.951026686    0.0526582041
10.213               0.950812511    0.0462413492
10.224               0.950542535    0.0397712339
10.235               0.950215167    0.0332467442
10.246                0.94982874    0.0266667363
10.257               0.949381512    0.0200300368
10.268               0.948871656    0.0133354413
10.279               0.948297265   0.00658171464
10.29                0.947656337 -0.000232410154
10.301               0.946946776    -0.007108232
10.312               0.946166388   -0.0140470822
10.323               0.945312869   -0.0210503249
10.334               0.944383805    -0.028119357
10.345               0.943376663   -0.0352556087
10.356               0.942288783   -0.0424605434
10.367               0.941117373   -0.0497356574
10.378               0.939859503   -0.0570824802
10.389                0.93851209   -0.0645025738
10.4                 0.937071897   -0.0719975321
10.411               0.935535519   -0.0795689806
10.422               0.933899373   -0.0872185749
10.433               0.932159691   -0.0949479998
10.444               0.930312503    -0.102758968
10.455               0.928353631    -0.110653217
10.466               0.926278671    -0.118632509
10.477               0.924082984    -0.126698625
10.488               0.921761674    -0.134853365
10.499               0.919309581    -0.143098543
10.51                0.916721257     -0.15143598
10.521               0.913990953    -0.159867502
10.532               0.911112596    -0.168394933
10.543               0.908079769    -0.177020087
10.554               0.904885694     -0.18574476
10.565                 0.9015232    -0.194570722
10.576               0.897984704    -0.203499706
10.587               0.894262184    -0.212533392
10.598               0.890347148    -0.221673399
10.609               0.886230602    -0.230921263
10.62                0.881903025    -0.240278421
10.631               0.877354323    -0.249746193
10.642               0.872573803     -0.25932575
10.653               0.867550126    -0.269018095
10.664               0.862271268    -0.278824026
10.675               0.856724476    -0.288744104
10.686                0.85089622    -0.298778611
10.697               0.844772141    -0.308927505
10.708               0.838337004    -0.319190367
10.719               0.831574635    -0.329566345
10.73                 0.82446787    -0.340054084
10.741               0.816998488    -0.350651653
10.752               0.809147152    -0.361356457
10.763               0.800893339    -0.372165142
10.774               0.792215275    -0.383073486
10.785               0.783089867    -0.394076273
10.796               0.773492628    -0.405167154
10.807               0.763397615     -0.41633849
10.818               0.752777351    -0.427581172
10.829               0.741602767     -0.43888442
10.84                0.729843139    -0.450235557
10.851               0.717466031    -0.461619755
10.862               0.704437257    -0.473019748
10.873               0.690720844    -0.484415512
10.884               0.676279025    -0.495783905
10.895               0.661072252    -0.507098271
10.9                 0.653896099     -0.51221518
10.906               0.645059233    -0.518327988
10.917               0.628197019     -0.52943798
10.928               0.610441128    -0.540388168
10.939               0.591745741    -0.551132871
10.95                0.572063961     -0.56162015
10.961               0.551348166    -0.571791096
10.972               0.529550476    -0.581579064
10.983               0.506623344    -0.590908854
10.994               0.482520305    -0.599695856
11.005               0.457196912    -0.607845159
11.016               0.430611878    -0.615250656
11.027               0.402728477     -0.62179416
11.038               0.373516214    -0.627344577
11.049               0.342952821    -0.631757183
11.06                0.311026598    -0.634873062
11.071               0.277739116    -0.636518789
11.082               0.243108325    -0.636506453
11.093               0.207172038    -0.634634142
11.104               0.169991774    -0.630687016
11.115                0.13165691    -0.624439123
11.126              0.0922890327    -0.615656134
11.137              0.0520463346    -0.604099141
11.148              0.0111278379    -0.589529692
11.159             -0.0302228438    -0.571716185
11.17              -0.0717145727    -0.550441676
11.181              -0.113007015    -0.525513093
11.192              -0.153710716    -0.496771706
11.203              -0.193389421    -0.464104557
11.214              -0.231565125    -0.427456359
11.225              -0.267726217    -0.386841202
11.236              -0.301338931    -0.342353191
11.247              -0.331862047    -0.294175034
11.258              -0.358764468    -0.242583526
11.269              -0.381544927    -0.187950937
11.28               -0.399752717    -0.130741532
11.291              -0.413008036   -0.0715027706
11.302              -0.421020373   -0.0108512319
11.313               -0.42360335    0.0505461816
11.324              -0.420684672     0.111994654
11.335              -0.412310207     0.172795962
11.346              -0.398641798     0.232273278
11.357              -0.379949006     0.289794454
11.368              -0.356595562      0.34479213
11.379              -0.329021796     0.396779408
11.39               -0.297724553     0.445360333
11.401              -0.263236237      0.49023498
11.412              -0.226104446     0.531199416
11.423              -0.186873457      0.56814126
11.434              -0.146068427     0.601031751
11.445              -0.104182813     0.629915421
11.456             -0.0616691663     0.654898386
11.467             -0.0189331749      0.67613618
11.478              0.0236693969      0.69382191
11.489              0.0658333183      0.70817525
11.5                 0.107302572     0.719432664
11.511               0.147867608     0.727839038
11.522               0.187361635     0.733640777
11.533                0.22565634     0.737080319
11.544               0.262657372      0.73839196
11.555               0.298299817     0.737798824
11.566               0.332543851     0.735510819
11.577               0.365370687     0.731723399
11.588               0.396778897     0.726616972
11.599               0.426781116     0.720356816
11.61                0.455401164     0.713093362
11.621               0.482671558      0.70496276
11.632               0.508631389     0.696087621
11.643               0.533324535     0.686577874
11.654                0.55679818     0.676531693
11.665               0.579101589     0.666036441
11.676                0.60028512     0.655169605
11.687               0.620399425     0.643999702
11.698               0.639494825     0.632587147
11.709               0.657620823     0.620985062
11.72                0.674825727     0.609240026
11.731               0.691156379     0.597392777
11.742               0.706657958     0.585478838
11.753               0.721373847     0.573529099
11.764                0.73534555     0.561570338
11.775               0.748612654     0.549625687
11.786               0.761212821     0.537715057
11.797               0.773181802     0.525855515
11.808               0.784553479      0.51406162
11.819               0.795359905      0.50234572
11.83                0.805631377     0.490718225
11.841               0.815396492     0.479187837
11.852               0.824682229     0.467761764
11.863               0.833514018     0.456445904
11.874               0.841915816     0.445245011
11.885               0.849910188     0.434162839
11.896               0.857518377     0.423202267
11.907               0.864760379      0.41236542
11.918               0.871655013      0.40165376
11.929               0.878219994     0.391068182
11.94                0.884471989     0.380609084
11.951               0.890426688     0.370276441
11.962               0.896098861     0.360069861
11.973               0.901502412     0.349988643
11.984               0.906650435     0.340031814
11.995                0.91155526     0.330198181
12.006               0.916228507     0.320486358
12.017               0.920681123     0.310894802
12.028                0.92492343     0.301421837
12.039               0.928965159     0.292065681
12.05                0.932815491     0.282824468
12.061               0.936483088      0.27369626
12.072               0.939976128     0.264679071
12.083               0.943302331     0.255770874
12.094               0.946468992     0.246969617
12.105               0.949483005     0.238273234
12.116               0.952350888     0.229679651
12.127               0.955078804     0.221186796
12.138               0.957672587     0.212792604
12.149               0.960137756     0.204495026
12.16                 0.96247954     0.196292029
12.171               0.964702893     0.188181604
12.182               0.966812507     0.180161769
12.193               0.968812835     0.172230571
12.204               0.970708097     0.164386086
12.215                 0.9725023     0.156626427
12.226               0.974199248      0.14894974
12.237               0.975802551     0.141354207
12.248               0.977315642     0.133838049
12.259               0.978741782     0.126399523
12.27                0.980084074     0.119036926
12.281               0.981345468     0.111748591
12.292               0.982528772     0.104532893
12.303               0.983636659    0.0973882422
12.314               0.984671676      0.09031309
12.325               0.985636248    0.0833059242
12.336               0.986532687    0.0763652709
12.347               0.987363199    0.0694896932
12.358               0.988129887    0.0626777912
12.369               0.988834757    0.0559282009
12.38                0.989479726    0.0492395941
12.391               0.990066623    0.0426106771
12.402               0.990597197    0.0360401908
12.413               0.991073119    0.0295269094
12.424               0.991495985    0.0230696397
12.435               0.991867323    0.0166672207
12.446               0.992188595    0.0103185227
12.457                 0.9924612   0.00402244642
12.468               0.992686476  -0.00222207754
12.479               0.992865707  -0.00841608959
12.49                0.993000121   -0.0145606018
12.501               0.993090896   -0.0206565988