! TOUCHSTONE file generated by CST MICROWAVE STUDIO
! Date and time: Mon Jan 20 16:13:12 2025
! Project name: unitcell.cst
! Parameters = {A=1.37079; AB_sqInv=0.531999; B=0.025494; C0=2.097; Cj=0.202273; Cp=0.075; Ct=0.277015; ImZ=-57.4536; L=10; L1=0.3; Lp=0.35; Lpad=0.75; M=1.199; R=5.41; ReZ=2.87811; Rt=2.87811; V=18; Vj=2.984; W=10; W1=-0.15; W2=-0.15; Wcoop=3.29; Wgap=1; Wline=1.42; Wpad=0.475; Wpadgap=0.35; Xpad1=1.6225; Xpad2=0.7975; Xpad3=1.6225; Xpad4=0.7975; Xvar_centre=1.21; f=0.01; f0=11; fmax=11.25; fmin=10.75; h=0.8; phi=0; th=0.035; theta=0}
! Header version: 2024
! Port assignment regex: !\s*Touchstone port\s*([0-9]+)\s*=\s*(CST MWS port|CST DES external port|CST DES block port)\s*(.+)\s* \(\"(.*)\"\)(\s*mode\s*([0-9]+))?.*
! Touchstone port assignment:
! Touchstone port 1 = CST MWS port Zmax ("") mode 1
! S-Parameters are not renormalized. Unphysical impedance of 0 will be written to the file.
# GHz S RI R 0
6                    0.661547771     0.686739629
6.011                0.669511323     0.676455949
6.022                 0.67747147     0.665799158
6.033                0.685420067     0.654752612
6.044                 0.69334796     0.643298875
6.055                0.701244872     0.631419699
6.066                0.709099284     0.619096004
6.077                0.716898298     0.606307863
6.088                 0.72462749     0.593034493
6.099                0.732270741      0.57925425
6.11                 0.739810062     0.564944639
6.121                0.747225392     0.550082326
6.132                0.754494379     0.534643174
6.143                0.761592143     0.518602287
6.154                0.768491012     0.501934077
6.165                0.775160242     0.484612359
6.176                0.781565702     0.466610468
6.187                0.787669547     0.447901417
6.198                0.793429854     0.428458095
6.209                 0.79880024      0.40825351
6.22                 0.803729458     0.387261095
6.231                0.808160964      0.36545508
6.242                0.812032475     0.342810941
6.253                0.815275514     0.319305942
6.264                0.817814947     0.294919779
6.275                0.819568534     0.269635341
6.286                0.820446498     0.243439615
6.297                0.820351145     0.216324726
6.308                0.819176535     0.188289152
6.319                0.816808266     0.159339119
6.33                 0.813123384     0.129490173
6.341                0.807990476    0.0987689723
6.352                0.801269996    0.0672152554
6.363                0.792814889    0.0348840172
6.374                0.782471578   0.00184784549
6.385                0.770081407   -0.0318006066
6.396                0.755482596   -0.0659460746
6.407                0.738512821    -0.100448147
6.418                0.719012472    -0.135138852
6.429                0.696828672    -0.169820518
6.44                 0.671820081    -0.204264084
6.451                  0.6438625    -0.238208088
6.462                0.612855216    -0.271358568
6.473                0.578727977    -0.303390154
6.484                0.541448391    -0.333948613
6.495                0.501029443    -0.362655087
6.506                 0.45753676    -0.389112226
6.517                0.411095104      -0.4129123
6.528                0.361893559    -0.433647267
6.539                0.310188806    -0.450920584
6.55                 0.256305911    -0.464360374
6.561                0.200636138    -0.473633353
6.572                0.143631468    -0.478458745
6.583               0.0857957027    -0.478621289
6.594               0.0276723619    -0.473982369
6.605              -0.0301701669    -0.464488384
6.616              -0.0871554378    -0.450175575
6.627               -0.142716727    -0.431170838
6.638               -0.196314652     -0.40768833
6.649               -0.247453495    -0.380022059
6.66                -0.295695199    -0.348534986
6.671               -0.340670243    -0.313645442
6.682               -0.382084884    -0.275811838
6.693               -0.419724593    -0.235516739
6.704               -0.453453837    -0.193251284
6.715               -0.483212601    -0.149500844
6.726                -0.50901027    -0.104732544
6.737                -0.53091756   -0.0593851059
6.748                -0.54905724   -0.0138611723
6.759               -0.563594313     0.031477885
6.77                -0.574726252    0.0763148625
6.781               -0.582673747     0.120377613
6.792               -0.587672294     0.163438277
6.803               -0.589964836     0.205311232
6.814               -0.589795552     0.245850118
6.825               -0.587404796     0.284944262
6.836               -0.583025151     0.322514783
6.847               -0.576878475     0.358510601
6.858               -0.569173842     0.392904512
6.869               -0.560106221     0.425689464
6.88                -0.549855787     0.456875109
6.891               -0.538587716     0.486484683
6.902               -0.526452365     0.514552227
6.913                -0.51358574      0.54112016
6.924               -0.500110163      0.56623719
6.935               -0.486135076     0.589956531
6.946               -0.471757927     0.612334417
6.957               -0.457065089     0.633428861
6.968               -0.442132789     0.653298648
6.979               -0.427028024     0.672002524
6.99                -0.411809427      0.68959855
7.001               -0.396528106     0.706143602
7.012               -0.381228412      0.72169299
7.023               -0.365948665     0.736300183
7.034               -0.350721809     0.750016606
7.045               -0.335576019     0.762891513
7.056               -0.320535245     0.774971914
7.067                -0.30561971     0.786302542
7.078               -0.290846352     0.796925854
7.089               -0.276229223     0.806882065
7.1                 -0.261779845     0.816209196
7.111               -0.247507527     0.824943139
7.122               -0.233419648     0.833117732
7.133               -0.219521901     0.840764847
7.144               -0.205818525     0.847914472
7.155                -0.19231249     0.854594808
7.166               -0.179005673     0.860832355
7.177               -0.165899014     0.866652007
7.188               -0.152992642     0.872077139
7.199                  -0.140286     0.877129694
7.21                -0.127777942      0.88183027
7.221               -0.115466827     0.886198195
7.232               -0.103350597     0.890251612
7.243              -0.0914268436     0.894007544
7.254              -0.0796928739      0.89748197
7.265              -0.0681457578     0.900689889
7.276              -0.0567823765     0.903645381
7.287              -0.0455994612     0.906361668
7.298              -0.0345936283     0.908851165
7.309              -0.0237614088     0.911125538
7.32               -0.0130992742     0.913195748
7.331             -0.00260365869     0.915072095
7.342              0.00772902141     0.916764267
7.353               0.0179023518     0.918281372
7.364               0.0279199061     0.919631981
7.375               0.0377852338     0.920824159
7.386               0.0475018506       0.9218655
7.397               0.0570732299     0.922763156
7.408               0.0665027958     0.923523864
7.419               0.0757939173     0.924153974
7.43                 0.084949904     0.924659475
7.441               0.0939740018     0.925046012
7.452                 0.10286939     0.925318916
7.463                0.111639181     0.925483215
7.474                0.120286414      0.92554366
7.485                0.128814059     0.925504738
7.496                0.137225014     0.925370688
7.507                0.145522104      0.92514552
7.518                0.153708081     0.924833024
7.529                0.161785628     0.924436789
7.54                 0.169757353     0.923960208
7.551                0.177625795     0.923406497
7.562                0.185393425     0.922778702
7.573                0.193062643     0.922079706
7.584                0.200635784     0.921312246
7.595                0.208115113     0.920478914
7.606                0.215502835     0.919582173
7.617                0.222801088     0.918624355
7.628                0.230011951     0.917607679
7.639                 0.23713744     0.916534248
7.65                 0.244179515     0.915406063
7.661                0.251140075     0.914225024
7.672                0.258020967     0.912992938
7.683                0.264823981     0.911711522
7.694                0.271550855     0.910382412
7.705                0.278203275     0.909007162
7.716                 0.28478288     0.907587254
7.727                0.291291256     0.906124097
7.738                0.297729947     0.904619033
7.749                0.304100446     0.903073344
7.76                 0.310404207     0.901488249
7.771                0.316642637      0.89986491
7.782                0.322817105     0.898204436
7.793                0.328928936     0.896507887
7.804                0.334979419     0.894776272
7.815                0.340969803     0.893010554
7.826                0.346901303     0.891211655
7.837                0.352775095     0.889380453
7.848                0.358592323     0.887517789
7.859                0.364354097     0.885624464
7.87                 0.370061495     0.883701247
7.881                0.375715562      0.88174887
7.892                0.381317317     0.879768036
7.903                0.386867744     0.877759415
7.914                0.392367802      0.87572365
7.925                0.397818423     0.873661355
7.936                 0.40322051     0.871573118
7.947                0.408574942     0.869459503
7.958                0.413882572      0.86732105
7.969                0.419144229     0.865158275
7.98                 0.424360718     0.862971673
7.991                0.429532824     0.860761719
8.002                0.434661305     0.858528869
8.013                0.439746902     0.856273556
8.024                0.444790334     0.853996201
8.035                0.449792298     0.851697204
8.046                0.454753475     0.849376949
8.057                0.459674525     0.847035805
8.068                 0.46455609     0.844674127
8.079                0.469398793     0.842292254
8.09                 0.474203243     0.839890512
8.101                 0.47897003     0.837469214
8.112                0.483699728      0.83502866
8.123                0.488392896      0.83256914
8.134                0.493050077     0.830090929
8.145                  0.4976718     0.827594294
8.156                 0.50225858     0.825079489
8.167                0.506810917     0.822546762
8.178                0.511329298     0.819996346
8.189                0.515814198     0.817428468
8.2                  0.520266076     0.814843345
8.211                0.524685383     0.812241187
8.222                0.529072554     0.809622194
8.233                0.533428016     0.806986558
8.244                0.537752183     0.804334464
8.255                0.542045456      0.80166609
8.266                 0.54630823     0.798981606
8.277                0.550540884     0.796281177
8.288                0.554743792      0.79356496
8.299                0.558917316     0.790833106
8.31                 0.563061807     0.788085759
8.321                0.567177609      0.78532306
8.332                0.571265056     0.782545142
8.343                0.575324474     0.779752132
8.354                0.579356179     0.776944155
8.365                0.583360481     0.774121327
8.376                0.587337679     0.771283762
8.387                0.591288066     0.768431568
8.398                0.595211927     0.765564849
8.409                 0.59910954     0.762683705
8.42                 0.602981175      0.75978823
8.431                0.606827094     0.756878515
8.442                0.610647555     0.753954648
8.453                0.614442806     0.751016712
8.464                0.618213091     0.748064785
8.475                0.621958646     0.745098945
8.486                0.625679702     0.742119262
8.497                0.629376481     0.739125806
8.508                0.633049204     0.736118642
8.519                0.636698083     0.733097832
8.53                 0.640323323     0.730063436
8.541                0.643925127      0.72701551
8.552                0.647503691     0.723954105
8.563                0.651059205     0.720879273
8.574                0.654591855     0.717791061
8.585                0.658101821     0.714689513
8.596                0.661589279     0.711574671
8.607                0.665054399     0.708446573
8.618                0.668497349     0.705305257
8.629                0.671918289     0.702150757
8.64                 0.675317376     0.698983103
8.651                0.678694763     0.695802326
8.662                0.682050598     0.692608451
8.673                0.685385026     0.689401503
8.684                0.688698187     0.686181503
8.695                0.691990215     0.682948473
8.706                0.695261244     0.679702428
8.717                0.698511402     0.676443385
8.728                0.701740811     0.673171356
8.739                0.704949594     0.669886353
8.75                 0.708137867     0.666588385
8.761                0.711305743     0.663277458
8.772                0.714453332     0.659953577
8.783                0.717580739     0.656616745
8.794                0.720688069     0.653266962
8.805                0.723775419     0.649904228
8.816                0.726842886     0.646528538
8.827                0.729890564     0.643139889
8.838                0.732918541     0.639738272
8.849                0.735926903     0.636323678
8.86                 0.738915735     0.632896096
8.871                0.741885117     0.629455514
8.882                0.744835124     0.626001916
8.893                0.747765833     0.622535285
8.904                0.750677314     0.619055603
8.915                0.753569634     0.615562849
8.926                0.756442861     0.612057001
8.937                0.759297055     0.608538032
8.948                0.762132277     0.605005919
8.959                0.764948584     0.601460631
8.97                  0.76774603     0.597902138
8.981                0.770524665     0.594330409
8.992                 0.77328454     0.590745408
9.003                0.776025699     0.587147101
9.014                0.778748186     0.583535447
9.025                0.781452041     0.579910408
9.036                0.784137303     0.576271942
9.047                0.786804006     0.572620003
9.058                0.789452182     0.568954546
9.069                0.792081863     0.565275522
9.08                 0.794693075     0.561582882
9.091                0.797285843     0.557876571
9.102                0.799860188     0.554156537
9.113                0.802416131     0.550422722
9.124                0.804953688     0.546675067
9.135                0.807472873     0.542913511
9.146                0.809973699     0.539137991
9.157                0.812456173     0.535348441
9.168                0.814920302     0.531544793
9.179                0.817366091     0.527726977
9.19                 0.819793539     0.523894919
9.201                0.822202646     0.520048547
9.212                0.824593407      0.51618778
9.223                0.826965814     0.512312541
9.234                0.829319859     0.508422745
9.245                0.831655528     0.504518309
9.256                0.833972807     0.500599144
9.267                0.836271677      0.49666516
9.278                0.838552118     0.492716264
9.289                0.840814105      0.48875236
9.3                  0.843057613     0.484773349
9.311                 0.84528261     0.480779131
9.322                0.847489066       0.4767696
9.333                0.849676944      0.47274465
9.344                0.851846205     0.468704169
9.355                0.853996809     0.464648044
9.366                 0.85612871     0.460576158
9.377                0.858241859     0.456488392
9.388                0.860336207     0.452384621
9.399                0.862411697      0.44826472
9.41                 0.864468273     0.444128557
9.421                0.866505872        0.439976
9.432                 0.86852443     0.435806911
9.443                0.870523878     0.431621148
9.454                0.872504143     0.427418568
9.465                0.874465151      0.42319902
9.476                 0.87640682     0.418962354
9.487                0.878329067     0.414708411
9.498                0.880231805     0.410437031
9.509                0.882114941     0.406148049
9.52                 0.883978379     0.401841295
9.531                0.885822019     0.397516595
9.542                0.887645756     0.393173771
9.553                 0.88944948     0.388812638
9.564                0.891233078     0.384433011
9.575                 0.89299643     0.380034694
9.586                0.894739413      0.37561749
9.597                0.896461898     0.371181196
9.608                0.898163749     0.366725603
9.619                0.899844829     0.362250497
9.63                 0.901504991     0.357755658
9.641                0.903144084     0.353240862
9.652                0.904761952     0.348705876
9.663                0.906358432     0.344150463
9.674                0.907933355     0.339574379
9.685                0.909486545     0.334977376
9.696                0.911017819     0.330359195
9.707                0.912526988     0.325719574
9.718                0.914013856     0.321058242
9.729                0.915478219     0.316374923
9.74                 0.916919865     0.311669331
9.751                0.918338575     0.306941175
9.762                 0.91973412     0.302190154
9.773                0.921106266      0.29741596
9.784                0.922454765     0.292618279
9.795                0.923779366     0.287796785
9.806                0.925079802     0.282951145
9.817                0.926355802     0.278081019
9.828                0.927607081     0.273186054
9.839                0.928833346      0.26826589
9.85                  0.93003429     0.263320158
9.861                0.931209596     0.258348478
9.872                0.932358937     0.253350459
9.883                0.933481972     0.248325701
9.894                0.934578345     0.243273793
9.905                0.935647691     0.238194312
9.916                0.936689628     0.233086825
9.927                0.937703761     0.227950885
9.938                0.938689678     0.222786034
9.949                0.939646954     0.217591803
9.96                 0.940575146     0.212367709
9.971                0.941473793     0.207113254
9.982                 0.94234242     0.201827929
9.993                0.943180528     0.196511209
10.004               0.943987604     0.191162558
10.015               0.944763111      0.18578142
10.026               0.945506492     0.180367227
10.037               0.946217169     0.174919396
10.048                0.94689454     0.169437326
10.059               0.947537979     0.163920398
10.07                0.948146835      0.15836798
10.081                0.94872043     0.152779418
10.092               0.949258059     0.147154043
10.103               0.949758989     0.141491165
10.114               0.950222456     0.135790076
10.125               0.950647663     0.130050047
10.136               0.951033783     0.124270331
10.147                0.95137995     0.118450156
10.158               0.951685267     0.112588733
10.169               0.951948793     0.106685247
10.18                0.952169552     0.100738861
10.191               0.952346521    0.0947487169
10.202               0.952478637    0.0887139291
10.213               0.952564789    0.0826335889
10.224               0.952603816    0.0765067618
10.235               0.952594507    0.0703324872
10.246               0.952535597    0.0641097773
10.257               0.952425764     0.057837617
10.268               0.952263626    0.0515149629
10.279               0.952047737    0.0451407424
10.29                0.951776587    0.0387138535
10.301               0.951448595    0.0322331637
10.312               0.951062106    0.0256975094
10.323               0.950615387    0.0191056954
10.334               0.950106625    0.0124564941
10.345               0.949533918    0.0057486448
10.356               0.948895274  -0.00101914668
10.367               0.948188605   -0.0078482087
10.378                0.94741172   -0.0147399043
10.389                0.94656232   -0.0216956316
10.4                 0.945637993   -0.0287168242
10.411               0.944636207   -0.0358049518
10.422                 0.9435543   -0.0429615196
10.433               0.942389477   -0.0501880694
10.444               0.941138799    -0.057486179
10.455               0.939799174    -0.064857462
10.466               0.938367353   -0.0723035678
10.477               0.936839911   -0.0798261808
10.488               0.935213247   -0.0874270195
10.499               0.933483565    -0.095107836
10.51                0.931646864    -0.102870414
10.521                0.92969893    -0.110716568
10.532               0.927635314    -0.118648139
10.543               0.925451326    -0.126666996
10.554               0.923142012    -0.134775029
10.565               0.920702145    -0.142974147
10.576               0.918126198    -0.151266273
10.587               0.915408333    -0.159653342
10.598               0.912542376    -0.168137291
10.609               0.909521799    -0.176720051
10.62                0.906339689    -0.185403546
10.631               0.902988733    -0.194189675
10.642               0.899461183    -0.203080309
10.653               0.895748831    -0.212077272
10.664               0.891842977     -0.22118233
10.675               0.887734397    -0.230397175
10.686               0.883413306    -0.239723403
10.697               0.878869323    -0.249162495
10.708               0.874091428    -0.258715791
10.719                0.86906792    -0.268384463
10.73                0.863786372     -0.27816948
10.741               0.858233581    -0.288071571
10.752               0.852395517    -0.298091186
10.763               0.846257267    -0.308228445
10.774               0.839802978    -0.318483082
10.785               0.833015792    -0.328854386
10.796               0.825877787    -0.339341127
10.807               0.818369901    -0.349941475
10.818               0.810471868    -0.360652907
10.829               0.802162138    -0.371472106
10.84                0.793417803    -0.382394837
10.851               0.784214518    -0.393415817
10.862               0.774526421    -0.404528555
10.873                0.76432605    -0.415725183
10.884               0.753584269    -0.426996259
10.895               0.742270185     -0.43833054
10.9                 0.736929448    -0.443499867
10.906               0.730351081    -0.449714733
10.917                0.71779235    -0.461133208
10.928               0.704557442     -0.47256768
10.939               0.690607824    -0.483996842
10.95                0.675902968    -0.495395964
10.961               0.660400355    -0.506736435
10.972               0.644055524    -0.517985253
10.983                0.62682216    -0.529104462
10.994               0.608652245    -0.540050525
11.005               0.589496274    -0.550773625
11.016               0.569303559    -0.561216913
11.027               0.548022651    -0.571315675
11.038               0.525601881    -0.580996447
11.049               0.501990069    -0.590176057
11.06                0.477137418    -0.598760629
11.071               0.450996638    -0.606644551
11.082               0.423524331    -0.613709433
11.093                0.39468268    -0.619823098
11.104               0.364441487    -0.624838648
11.115               0.332780606    -0.628593671
11.126               0.299692793    -0.630909671
11.137               0.265187021    -0.631591832
11.148                0.22929226    -0.630429238
11.159               0.192061711    -0.627195707
11.17                0.153577456    -0.621651413
11.181               0.113955415    -0.613545501
11.192              0.0733504693    -0.602619891
11.203              0.0319615029    -0.588614485
11.214            -0.00996394424    -0.571273952
11.225             -0.0521258391    -0.550356194
11.236             -0.0941691373    -0.525642546
11.247              -0.135683171     -0.49694955
11.258              -0.176203571    -0.464142035
11.269              -0.215217333    -0.427146942
11.28               -0.252171537    -0.385967114
11.291              -0.286486036    -0.340694038
11.302              -0.317570116      -0.2915183
11.313              -0.344842712    -0.238736464
11.324              -0.367755327    -0.182753092
11.335              -0.385816273    -0.124076921
11.346               -0.39861451   -0.0633106066
11.357              -0.405841101  -0.00113406085
11.368              -0.407306297    0.0617178792
11.379              -0.402950576      0.12448206
11.39               -0.392848475     0.186395932
11.401              -0.377204798     0.246726518
11.412              -0.356343561      0.30479714
11.423              -0.330690808     0.360009927
11.434              -0.300752954      0.41186263
11.445              -0.267092651     0.459958982
11.456              -0.230304182     0.504012537
11.467              -0.190990171     0.543844534
11.478              -0.149741006     0.579376799
11.489              -0.107117905     0.610620961
11.5                -0.063640032     0.637665328
11.511             -0.0197757031      0.66066067
11.522              0.0240626543     0.679805976
11.533              0.0675203001     0.695335005
11.544               0.110299373      0.70750418
11.555               0.152156124     0.716582139
11.566               0.192896804     0.722841085
11.577               0.232372731     0.726549893
11.588                0.27047497     0.727968856
11.599                0.30712896     0.727345883
11.61                0.342289328     0.724913931
11.621               0.375935051      0.72088946
11.632               0.408065057     0.715471695
11.643               0.438694319     0.708842517
11.654               0.467850445     0.701166811
11.665               0.495570751     0.692593151
11.676               0.521899782     0.683254699
11.687               0.546887242     0.673270248
11.698                0.57058629     0.662745322
11.709               0.593052153     0.651773301
11.72                0.614341005     0.640436534
11.731               0.634509089     0.628807401
11.742                0.65361203     0.616949322
11.753               0.671704305     0.604917703
11.764               0.688838853     0.592760797
11.775               0.705066795     0.580520508
11.786               0.720437239     0.568233106
11.797               0.734997155     0.555929884
11.808               0.748791311     0.543637738
11.819                0.76186225     0.531379702
11.83                0.774250299     0.519175404
11.841                0.78599361     0.507041492
11.852               0.797128211     0.494991997
11.863               0.807688084     0.483038665
11.874               0.817705237      0.47119124
11.885               0.827209798     0.459457724
11.896               0.836230096     0.447844603
11.907               0.844792763     0.436357038
11.918               0.852922814     0.424999046
11.929               0.860643747     0.413773648
11.94                0.867977625     0.402683008
11.951                0.87494516     0.391728547
11.962               0.881565799     0.380911047
11.973                 0.8878578     0.370230742
11.984               0.893838304     0.359687399
11.995               0.899523408     0.349280384
12.006                0.90492823     0.339008725
12.017               0.910066972     0.328871164
12.028                0.91495298     0.318866203
12.039               0.919598799     0.308992146
12.05                0.924016221     0.299247132
12.061               0.928216339     0.289629166
12.072               0.932209591     0.280136148
12.083                 0.9360058     0.270765893
12.094               0.939614214     0.261516153
12.105               0.943043548     0.252384635
12.116               0.946302011     0.243369011
12.127               0.949397344     0.234466937
12.138               0.952336847     0.225676064
12.149               0.955127409     0.216994041
12.16                0.957775532      0.20841853
12.171               0.960287356     0.199947209
12.182               0.962668685      0.19157778
12.193               0.964925001     0.183307971
12.204                0.96706149     0.175135546
12.215                0.96908306       0.1670583
12.226               0.970994354     0.159074068
12.237               0.972799769     0.151180727
12.248               0.974503471     0.143376192
12.259               0.976109408     0.135658425
12.27                0.977621324     0.128025432
12.281               0.979042769     0.120475261
12.292               0.980377115     0.113006009
12.303               0.981627561     0.105615816
12.314               0.982797146      0.09830287
12.325               0.983888758    0.0910654021
12.336               0.984905142    0.0839016896
12.347                0.98584891    0.0768100542
12.358               0.986722545    0.0697888617
12.369               0.987528414     0.062836521
12.38                0.988268766     0.055951484
12.391               0.988945749    0.0491322446
12.402               0.989561405    0.0423773375
12.413               0.990117685    0.0356853378
12.424               0.990616446    0.0290548603
12.435               0.991059464    0.0224845579
12.446               0.991448431    0.0159731213
12.457               0.991784964   0.00951927788
12.468               0.992070607   0.00312179085
12.479               0.992306837  -0.00322054182
12.49                0.992495065  -0.00950888817
12.501               0.992636639   -0.0157443832