! TOUCHSTONE file generated by CST MICROWAVE STUDIO
! Date and time: Mon Jan 20 16:13:13 2025
! Project name: unitcell.cst
! Parameters = {A=1.40924; AB_sqInv=0.503371; B=0.025494; C0=2.097; Cj=0.183267; Cp=0.075; Ct=0.258061; ImZ=-61.6735; L=10; L1=0.3; Lp=0.35; Lpad=0.75; M=1.199; R=5.41; ReZ=2.72324; Rt=2.72324; V=19.8; Vj=2.984; W=10; W1=-0.15; W2=-0.15; Wcoop=3.29; Wgap=1; Wline=1.42; Wpad=0.475; Wpadgap=0.35; Xpad1=1.6225; Xpad2=0.7975; Xpad3=1.6225; Xpad4=0.7975; Xvar_centre=1.21; f=0.01; f0=11; fmax=11.25; fmin=10.75; h=0.8; phi=0; th=0.035; theta=0}
! Header version: 2024
! Port assignment regex: !\s*Touchstone port\s*([0-9]+)\s*=\s*(CST MWS port|CST DES external port|CST DES block port)\s*(.+)\s* \(\"(.*)\"\)(\s*mode\s*([0-9]+))?.*
! Touchstone port assignment:
! Touchstone port 1 = CST MWS port Zmax ("") mode 1
! S-Parameters are not renormalized. Unphysical impedance of 0 will be written to the file.
# GHz S RI R 0
6                    0.611286102     0.757472943
6.011                0.618679793     0.750310337
6.022                0.626107871     0.742927942
6.033                0.633568567     0.735317171
6.044                0.641059846     0.727469023
6.055                0.648579378     0.719374065
6.066                 0.65612451     0.711022411
6.077                0.663692226       0.7024037
6.088                0.671279115     0.693507073
6.099                0.678881328     0.684321151
6.11                 0.686494528     0.674834012
6.121                0.694113841     0.665033168
6.132                0.701733803     0.654905541
6.143                0.709348293     0.644437441
6.154                0.716950467     0.633614539
6.165                0.724532683     0.622421852
6.176                0.732086419     0.610843718
6.187                0.739602176     0.598863775
6.198                0.747069384     0.586464951
6.209                0.754476289     0.573629444
6.22                 0.761809828     0.560338718
6.231                0.769055499     0.546573497
6.242                0.776197211     0.532313767
6.253                0.783217126     0.517538786
6.264                0.790095481     0.502227108
6.275                0.796810392     0.486356613
6.286                0.803337652     0.469904552
6.297                0.809650493     0.452847618
6.308                0.815719345     0.435162027
6.319                0.821511564     0.416823627
6.33                 0.826991144     0.397808044
6.341                0.832118409     0.378090854
6.352                 0.83684968       0.3576478
6.363                0.841136929     0.336455056
6.374                0.844927406     0.314489548
6.385                0.848163266      0.29172934
6.396                 0.85078117     0.268154092
6.407                0.852711891     0.243745607
6.418                0.853879925     0.218488473
6.429                0.854203115      0.19237081
6.44                 0.853592302      0.16538515
6.451                0.851951034     0.137529439
6.462                0.849175337     0.108808193
6.473                0.845153587    0.0792338121
6.484                0.839766522    0.0488280531
6.495                0.832887425      0.01762368
6.506                0.824382521   -0.0143337239
6.517                0.814111665   -0.0469837854
6.528                0.801929357   -0.0802492358
6.539                0.787686161    -0.114033705
6.55                 0.771230599    -0.148219474
6.561                0.752411591    -0.182665251
6.572                0.731081484    -0.217204082
6.583                 0.70709976    -0.251641524
6.594                0.680337407    -0.285754224
6.605                0.650681993    -0.319289107
6.616                0.618043371    -0.351963372
6.627                0.582359927    -0.383465521
6.638                0.543605199    -0.413457655
6.649                0.501794614    -0.441579234
6.66                 0.456992031    -0.467452477
6.671                0.409315662    -0.490689498
6.682                0.358942922    -0.510901152
6.693                0.306113691    -0.527707467
6.704                0.251131494    -0.540749346
6.715                0.194362156     -0.54970108
6.726                0.136229603    -0.554283054
6.737               0.0772086585    -0.554273881
6.748               0.0178149103     -0.54952118
6.759              -0.0414080391    -0.539950152
6.77                -0.099903359    -0.525569281
6.781               -0.157117029    -0.506472582
6.792               -0.212514191    -0.482838153
6.803               -0.265594813     -0.45492301
6.814               -0.315907716    -0.423054535
6.825               -0.363062145    -0.387619105
6.836                -0.40673629    -0.349048699
6.847               -0.446682449    -0.307806374
6.858               -0.482728767    -0.264371521
6.869               -0.514777797    -0.219225772
6.88                -0.542802291    -0.172840226
6.891               -0.566838789    -0.125664544
6.902               -0.586979651   -0.0781182007
6.913               -0.603364163   -0.0305840165
6.924               -0.616169304    0.0165960797
6.935               -0.625600664    0.0631232504
6.946               -0.631883916     0.108742178
6.957                 -0.6352571     0.153240044
6.968                -0.63596389     0.196444391
6.979               -0.634247925      0.23822018
6.99                -0.630348205     0.278466347
7.001               -0.624495484      0.31711207
7.012               -0.616909592     0.354112985
7.023               -0.607797562      0.38944746
7.034               -0.597352436     0.423113072
7.045               -0.585752653     0.455123338
7.056               -0.573161884     0.485504746
7.067               -0.559729227      0.51429412
7.078               -0.545589659       0.5415363
7.089               -0.530864694     0.567282139
7.1                 -0.515663155     0.591586798
7.111                -0.50008203     0.614508309
7.122               -0.484207362     0.636106377
7.133               -0.468115156     0.656441403
7.144               -0.451872256      0.67557369
7.155               -0.435537203     0.693562817
7.166               -0.419161042      0.71046714
7.177               -0.402788083     0.726343424
7.188               -0.386456608      0.74124656
7.199                -0.37019952     0.755229372
7.21                -0.354044939     0.768342482
7.221               -0.338016746      0.78063424
7.232               -0.322135067     0.792150681
7.243               -0.306416723     0.802935536
7.254               -0.290875624     0.813030253
7.265               -0.275523122     0.822474047
7.276               -0.260368333     0.831303965
7.287               -0.245418417     0.839554959
7.298               -0.230678831     0.847259973
7.309               -0.216153551     0.854450023
7.32                -0.201845269     0.861154295
7.331               -0.187755569     0.867400234
7.342                -0.17388508     0.873213634
7.353               -0.160233611      0.87861873
7.364                -0.14680027     0.883638285
7.375               -0.133583573     0.888293673
7.386               -0.120581529     0.892604965
7.397               -0.107791728     0.896591004
7.408              -0.0952114059     0.900269482
7.419              -0.0828375108     0.903657008
7.43               -0.0706667528      0.90676918
7.441              -0.0586956537     0.909620644
7.452              -0.0469205866     0.912225157
7.463              -0.0353378115     0.914595641
7.474              -0.0239435062     0.916744239
7.485              -0.0127337928     0.918682363
7.496             -0.00170476033      0.92042074
7.507              0.00914751567     0.921969459
7.518                0.019826956     0.923338009
7.529                0.030337464     0.924535316
7.54                0.0406829127     0.925569783
7.551               0.0508671352     0.926449323
7.562               0.0608939161     0.927181385
7.573               0.0707669838     0.927772989
7.584               0.0804900052     0.928230752
7.595               0.0900665806      0.92856091
7.606               0.0995002401     0.928769347
7.617                0.108794441     0.928861614
7.628                0.117952564     0.928842948
7.639                0.126977914     0.928718296
7.65                 0.135873717      0.92849233
7.661                0.144643122     0.928169464
7.672                0.153289196     0.927753872
7.683                0.161814929     0.927249498
7.694                0.170223233     0.926660075
7.705                0.178516943     0.925989134
7.716                0.186698815     0.925240018
7.727                0.194771531     0.924415895
7.738                0.202737697     0.923519761
7.749                0.210599848     0.922554461
7.76                 0.218360446     0.921522687
7.771                0.226021883     0.920426995
7.782                0.233586481     0.919269809
7.793                0.241056496     0.918053428
7.804                 0.24843412     0.916780038
7.815                0.255721479      0.91545171
7.826                0.262920637     0.914070416
7.837                0.270033598     0.912638026
7.848                0.277062307     0.911156321
7.859                0.284008651     0.909626993
7.87                 0.290874464     0.908051651
7.881                0.297661522     0.906431826
7.892                0.304371552     0.904768977
7.903                0.311006228     0.903064491
7.914                0.317567175      0.90131969
7.925                 0.32405597     0.899535834
7.936                0.330474144     0.897714122
7.947                0.336823184     0.895855698
7.958                0.343104529     0.893961653
7.969                0.349319582     0.892033027
7.98                 0.355469699     0.890070813
7.991                0.361556201     0.888075959
8.002                0.367580367     0.886049368
8.013                 0.37354344     0.883991903
8.024                0.379446628      0.88190439
8.035                0.385291102     0.879787615
8.046                0.391078001     0.877642332
8.057                0.396808429      0.87546926
8.068                0.402483461     0.873269087
8.079                0.408104137      0.87104247
8.09                 0.413671472     0.868790038
8.101                0.419186449     0.866512393
8.112                0.424650024     0.864210112
8.123                0.430063126     0.861883744
8.134                0.435426657     0.859533817
8.145                0.440741493     0.857160837
8.156                0.446008488     0.854765287
8.167                 0.45122847     0.852347631
8.178                0.456402243     0.849908311
8.189                0.461530591     0.847447754
8.2                  0.466614275     0.844966367
8.211                0.471654034     0.842464541
8.222                0.476650588     0.839942649
8.233                0.481604638      0.83740105
8.244                0.486516862      0.83484009
8.255                0.491387924     0.832260097
8.266                0.496218467     0.829661389
8.277                0.501009117     0.827044269
8.288                0.505760484     0.824409028
8.299                0.510473159     0.821755945
8.31                 0.515147722      0.81908529
8.321                0.519784731     0.816397318
8.332                0.524384734     0.813692277
8.343                0.528948262     0.810970403
8.354                0.533475833     0.808231924
8.365                 0.53796795     0.805477058
8.376                0.542425103     0.802706014
8.387                 0.54684777     0.799918993
8.398                0.551236415     0.797116187
8.409                0.555591491     0.794297783
8.42                 0.559913438     0.791463956
8.431                0.564202685     0.788614877
8.442                0.568459649      0.78575071
8.453                0.572684737      0.78287161
8.464                0.576878346     0.779977729
8.475                 0.58104086     0.777069211
8.486                0.585172656     0.774146193
8.497                0.589274099     0.771208807
8.508                0.593345546     0.768257182
8.519                0.597387344     0.765291437
8.53                  0.60139983      0.76231169
8.541                0.605383335     0.759318052
8.552                0.609338179     0.756310629
8.563                0.613264674     0.753289524
8.574                0.617163126     0.750254834
8.585                0.621033829     0.747206651
8.596                0.624877074     0.744145067
8.607                0.628693142     0.741070164
8.618                0.632482306     0.737982024
8.629                0.636244834     0.734880725
8.64                 0.639980985     0.731766339
8.651                0.643691014     0.728638937
8.662                0.647375166     0.725498585
8.673                0.651033681     0.722345347
8.684                0.654666795     0.719179282
8.695                0.658274734     0.716000446
8.706                0.661857721     0.712808893
8.717                0.665415971     0.709604674
8.728                0.668949696     0.706387837
8.739                0.672459099     0.703158425
8.75                  0.67594438     0.699916481
8.761                0.679405733     0.696662043
8.772                0.682843347     0.693395149
8.783                0.686257405     0.690115832
8.794                0.689648087     0.686824123
8.805                0.693015566     0.683520051
8.816                0.696360012     0.680203643
8.827                0.699681589     0.676874921
8.838                0.702980456     0.673533909
8.849                 0.70625677     0.670180624
8.86                 0.709510681     0.666815084
8.871                0.712742336     0.663437303
8.882                0.715951877     0.660047294
8.893                0.719139444     0.656645067
8.904                 0.72230517     0.653230631
8.915                0.725449186      0.64980399
8.926                0.728571618     0.646365149
8.937                 0.73167259      0.64291411
8.948                0.734752219     0.639450873
8.959                0.737810621     0.635975434
8.97                 0.740847908      0.63248779
8.981                0.743864187     0.628987934
8.992                0.746859563     0.625475858
9.003                0.749834137     0.621951552
9.014                0.752788006     0.618415002
9.025                0.755721265     0.614866196
9.036                0.758634004     0.611305116
9.047                0.761526311     0.607731744
9.058                0.764398271      0.60414606
9.069                0.767249963     0.600548041
9.08                 0.770081467     0.596937665
9.091                0.772892857     0.593314903
9.102                0.775684204      0.58967973
9.113                0.778455578     0.586032113
9.124                0.781207044     0.582372022
9.135                0.783938665     0.578699423
9.146                  0.7866505     0.575014279
9.157                0.789342606     0.571316551
9.168                0.792015036     0.567606202
9.179                0.794667843     0.563883187
9.19                 0.797301072     0.560147463
9.201                0.799914771     0.556398984
9.212                 0.80250898     0.552637702
9.223                0.805083739     0.548863565
9.234                0.807639086     0.545076522
9.245                0.810175052     0.541276518
9.256                 0.81269167     0.537463495
9.267                0.815188967     0.533637395
9.278                0.817666969     0.529798156
9.289                0.820125698     0.525945715
9.3                  0.822565172     0.522080006
9.311                0.824985411      0.51820096
9.322                0.827386425     0.514308506
9.333                0.829768228     0.510402572
9.344                0.832130828     0.506483082
9.355                0.834474228     0.502549959
9.366                0.836798433      0.49860312
9.377                 0.83910344     0.494642484
9.388                0.841389248     0.490667964
9.399                0.843655849     0.486679472
9.41                 0.845903234     0.482676918
9.421                0.848131391     0.478660206
9.432                0.850340304      0.47462924
9.443                0.852529955      0.47058392
9.454                0.854700322     0.466524144
9.465                 0.85685138     0.462449807
9.476                0.858983102     0.458360799
9.487                0.861095457     0.454257008
9.498                0.863188409     0.450138321
9.509                0.865261922     0.446004617
9.52                 0.867315954     0.441855776
9.531                 0.86935046     0.437691672
9.542                0.871365393     0.433512178
9.553                  0.8733607      0.42931716
9.564                0.875336327     0.425106484
9.575                0.877292215     0.420880008
9.586                  0.8792283     0.416637591
9.597                0.881144517     0.412379085
9.608                0.883040794     0.408104338
9.619                0.884917057     0.403813195
9.63                 0.886773228     0.399505496
9.641                0.888609223     0.395181077
9.652                0.890424955      0.39083977
9.663                0.892220333     0.386481402
9.674                 0.89399526     0.382105796
9.685                0.895749635     0.377712767
9.696                0.897483353     0.373302131
9.707                0.899196303     0.368873693
9.718                0.900888369     0.364427257
9.729                0.902559431     0.359962619
9.74                 0.904209362     0.355479572
9.751                0.905838031     0.350977901
9.762                  0.9074453     0.346457387
9.773                0.909031026     0.341917804
9.784                0.910595059     0.337358922
9.795                0.912137245     0.332780501
9.806                0.913657421     0.328182298
9.817                0.915155418     0.323564061
9.828                0.916631062     0.318925535
9.839                0.918084169     0.314266453
9.85                  0.91951455     0.309586545
9.861                0.920922008     0.304885531
9.872                0.922306337     0.300163126
9.883                0.923667324     0.295419034
9.894                0.925004748     0.290652953
9.905                0.926318377     0.285864574
9.916                0.927607972     0.281053576
9.927                0.928873285     0.276219633
9.938                0.930114058     0.271362407
9.949                 0.93133002     0.266481553
9.96                 0.932520894     0.261576716
9.971                0.933686389      0.25664753
9.982                0.934826204      0.25169362
9.993                0.935940026     0.246714601
10.004               0.937027529     0.241710076
10.015               0.938088377     0.236679637
10.026               0.939122218     0.231622867
10.037               0.940128686     0.226539334
10.048               0.941107403     0.221428597
10.059               0.942057974     0.216290201
10.07                 0.94297999     0.211123677
10.081               0.943873025     0.205928545
10.092               0.944736635     0.200704311
10.103                0.94557036     0.195450467
10.114               0.946373722     0.190166489
10.125               0.947146221     0.184851839
10.136                0.94788734     0.179505965
10.147               0.948596539     0.174128297
10.158               0.949273256     0.168718251
10.169               0.949916907     0.163275224
10.18                0.950526884     0.157798596
10.191               0.951102553     0.152287731
10.202               0.951643254     0.146741971
10.213                 0.9521483     0.141160644
10.224               0.952616973     0.135543053
10.235               0.953048529     0.129888485
10.246               0.953442187     0.124196203
10.257               0.953797136      0.11846545
10.268               0.954112529     0.112695447
10.279               0.954387483     0.106885393
10.29                0.954621075      0.10103446
10.301               0.954812344    0.0951417995
10.312               0.954960283    0.0892065359
10.323               0.955063844    0.0832277686
10.334               0.955121928    0.0772045701
10.345                0.95513339    0.0711359858
10.356               0.955097031    0.0650210327
10.367               0.955011597    0.0588586993
10.378               0.954875777    0.0526479438
10.389               0.954688198    0.0463876942
10.4                 0.954447424    0.0400768469
10.411                0.95415195    0.0337142659
10.422               0.953800201    0.0272987821
10.433               0.953390524    0.0208291923
10.444               0.952921187    0.0143042587
10.455               0.952390376   0.00772270733
10.466               0.951796185   0.00108322796
10.477               0.951136614  -0.00561552713
10.488               0.950409564   -0.0123749438
10.499               0.949612831   -0.0191964469
10.51                0.948744097   -0.0260815007
10.521               0.947800928   -0.0330316101
10.532               0.946780762   -0.0400483205
10.543               0.945680906   -0.0471332189
10.554               0.944498522   -0.0542879339
10.565               0.943230627   -0.0615141363
10.576               0.941874073   -0.0688135389
10.587               0.940425548    -0.076187897
10.598               0.938881555   -0.0836390075
10.609               0.937238409    -0.091168709
10.62                 0.93549222   -0.0987788809
10.631               0.933638882    -0.106471442
10.642               0.931674056    -0.114248351
10.653               0.929593159    -0.122111602
10.664               0.927391345    -0.130063224
10.675               0.925063487    -0.138105276
10.686               0.922604163     -0.14623985
10.697                0.92000763    -0.154469056
10.708               0.917267805    -0.162795029
10.719               0.914378241    -0.171219914
10.73                0.911332107    -0.179745863
10.741               0.908122151    -0.188375028
10.752               0.904740683    -0.197109547
10.763               0.901179534    -0.205951538
10.774               0.897430029    -0.214903082
10.785               0.893482949     -0.22396621
10.796               0.889328492    -0.233142884
10.807               0.884956234    -0.242434977
10.818               0.880355081     -0.25184425
10.829               0.875513224    -0.261372325
10.84                0.870418089     -0.27102065
10.851               0.865056277    -0.280790469
10.862               0.859413513    -0.290682774
10.873               0.853474577    -0.300698263
10.884               0.847223238     -0.31083728
10.895               0.840642187    -0.321099752
10.9                 0.837536854    -0.325805194
10.906               0.833712956    -0.331485123
10.917               0.826415842    -0.341992261
10.928               0.818729818     -0.35261937
10.939               0.810632446    -0.363363878
10.95                0.802099785    -0.374222312
10.961               0.793106291    -0.385190153
10.972               0.783624716    -0.396261675
10.983               0.773626009    -0.407429756
10.994                0.76307921    -0.418685662
11.005               0.751951346    -0.430018804
11.016                0.74020733     -0.44141646
11.027               0.727809871    -0.452863453
11.038               0.714719383    -0.464341793
11.049               0.700893917    -0.475830265
11.06                0.686289112    -0.487303958
11.071               0.670858169    -0.498733743
11.082               0.654551868    -0.510085676
11.093                0.63731863    -0.521320327
11.104               0.619104651    -0.532392027
11.115               0.599854107    -0.543248038
11.126               0.579509469    -0.553827619
11.137               0.558011948    -0.564061005
11.148               0.535302102    -0.573868297
11.159               0.511320635    -0.583158253
11.17                 0.48600944    -0.591827012
11.181               0.459312937    -0.599756752
11.192               0.431179746    -0.606814325
11.203               0.401564771    -0.612849908
11.214               0.370431751    -0.617695742
11.225               0.337756344    -0.621165034
11.236               0.303529796    -0.623051156
11.247               0.267763255     -0.62312728
11.258               0.230492738    -0.621146641
11.269               0.191784742     -0.61684366
11.28                0.151742431    -0.609936185
11.291               0.110512255    -0.600129161
11.302              0.0682907425    -0.587120026
11.313              0.0253311023    -0.570606153
11.324             -0.0180508817    -0.550294569
11.335             -0.0614723402     -0.52591411
11.346              -0.104481004    -0.497229961
11.357              -0.146556006    -0.464060293
11.368              -0.187112752    -0.426294372
11.379              -0.225512718    -0.383911124
11.39               -0.261078774    -0.336996722
11.401               -0.29311622     -0.28575945
11.412              -0.320939078    -0.230539848
11.423              -0.343900448    -0.171814215
11.434              -0.361424978    -0.110189848
11.445              -0.373040802   -0.0463911109
11.456              -0.378407942    0.0187636335
11.467              -0.377340189    0.0843930415
11.478              -0.369817958     0.149589498
11.489              -0.355990569     0.213458393
11.5                -0.336167615     0.275156458
11.511              -0.310800389     0.333925747
11.522               -0.28045545      0.38912053
11.533              -0.245783162     0.440225297
11.544              -0.207484337     0.486863295
11.555              -0.166277888     0.528796052
11.566              -0.122871883      0.56591527
11.577             -0.0779396101     0.598228943
11.588              -0.032101471     0.625843775
11.599              0.0140871958      0.64894588
11.61               0.0601428262     0.667781402
11.621                0.10565568     0.682638345
11.632               0.150288216     0.693830413
11.643                0.19377079     0.701683344
11.654               0.235895604     0.706523841
11.665               0.276509687     0.708671037
11.676               0.315507524     0.708430247
11.687               0.352823792     0.706088692
11.698               0.388426502     0.701912864
11.709               0.422310754     0.696147179
11.72                0.454493195     0.689013639
11.731               0.485007202     0.680712221
11.742               0.513898782      0.67142178
11.753               0.541223144     0.661301288
11.764               0.567041861     0.650491274
11.775               0.591420581     0.639115364
11.786               0.614427178     0.627281831
11.797               0.636130311     0.615085121
11.808               0.656598294     0.602607307
11.819               0.675898253     0.589919447
11.83                0.694095487     0.577082844
11.841               0.711253026     0.564150195
11.852               0.727431315     0.551166624
11.863               0.742688027     0.538170624
11.874               0.757077954     0.525194884
11.885               0.770652969     0.512267033
11.896               0.783462045     0.499410295
11.907               0.795551308     0.486644064
11.918               0.806964118     0.473984418
11.929               0.817741174     0.461444561
11.94                0.827920625     0.449035213
11.951                 0.8375382     0.436764954
11.962               0.846627332     0.424640521
11.973               0.855219286     0.412667066
11.984               0.863343288     0.400848382
11.995               0.871026653     0.389187104
12.006               0.878294898     0.377684872
12.017               0.885171866     0.366342485
12.028               0.891679831     0.355160029
12.039               0.897839606     0.344136985
12.05                 0.90367064     0.333272331
12.061               0.909191111     0.322564619
12.072               0.914418015     0.312012052
12.083               0.919367247     0.301612545
12.094               0.924053676     0.291363778
12.105               0.928491218     0.281263242
12.116               0.932692902     0.271308282
12.127               0.936670931     0.261496127
12.138               0.940436739     0.251823921
12.149               0.944001044      0.24228875
12.16                0.947373902     0.232887661
12.171               0.950564744      0.22361768
12.182               0.953582429     0.214475829
12.193               0.956435273     0.205459141
12.204               0.959131095     0.196564664
12.215               0.961677244     0.187789479
12.226               0.964080634     0.179130701
12.237               0.966347772     0.170585489
12.248               0.968484786     0.162151048
12.259               0.970497448     0.153824636
12.27                0.972391201     0.145603567
12.281               0.974171177     0.137485211
12.292               0.975842218     0.129466999
12.303               0.977408896     0.121546421
12.314               0.978875529     0.113721031
12.325               0.980246199     0.105988443
12.336               0.981524764    0.0983463352
12.347               0.982714873    0.0907924458
12.358               0.983819981    0.0833245761
12.369               0.984843359     0.075940588
12.38                0.985788106    0.0686384037
12.391               0.986657158    0.0614160047
12.402               0.987453302    0.0542714307
12.413               0.988179178    0.0472027787
12.424               0.988837295    0.0402082015
12.435               0.989430034    0.0332859068
12.446               0.989959657    0.0264341554
12.457               0.990428315    0.0196512604
12.468               0.990838053    0.0129355855
12.479               0.991190815     0.006285544
12.49                0.991488452 -0.000300403084
12.501               0.991732728  -0.00682374789