! TOUCHSTONE file generated by CST MICROWAVE STUDIO
! Date and time: Mon Jan 20 16:13:12 2025
! Project name: unitcell.cst
! Parameters = {A=1.39207; AB_sqInv=0.51586; B=0.025494; C0=2.097; Cj=0.191292; Cp=0.075; Ct=0.266064; ImZ=-59.8182; L=10; L1=0.3; Lp=0.35; Lpad=0.75; M=1.199; R=5.41; ReZ=2.7908; Rt=2.7908; V=19; Vj=2.984; W=10; W1=-0.15; W2=-0.15; Wcoop=3.29; Wgap=1; Wline=1.42; Wpad=0.475; Wpadgap=0.35; Xpad1=1.6225; Xpad2=0.7975; Xpad3=1.6225; Xpad4=0.7975; Xvar_centre=1.21; f=0.01; f0=11; fmax=11.25; fmin=10.75; h=0.8; phi=0; th=0.035; theta=0}
! Header version: 2024
! Port assignment regex: !\s*Touchstone port\s*([0-9]+)\s*=\s*(CST MWS port|CST DES external port|CST DES block port)\s*(.+)\s* \(\"(.*)\"\)(\s*mode\s*([0-9]+))?.*
! Touchstone port assignment:
! Touchstone port 1 = CST MWS port Zmax ("") mode 1
! S-Parameters are not renormalized. Unphysical impedance of 0 will be written to the file.
# GHz S RI R 0
6                    0.631656656     0.731474833
6.011                 0.63932427     0.723204013
6.022                0.647018468     0.714660732
6.033                0.654735794      0.70583363
6.044                0.662472332     0.696710791
6.055                0.670223648     0.687279719
6.066                 0.67798474     0.677527312
6.077                0.685749976     0.667439834
6.088                0.693513024     0.657002894
6.099                0.701266781     0.646201417
6.11                 0.709003286     0.635019623
6.121                0.716713634     0.623441005
6.132                0.724387871     0.611448305
6.143                0.732014886     0.599023501
6.154                0.739582286     0.586147792
6.165                0.747076266     0.572801587
6.176                0.754481456     0.558964505
6.187                0.761780761     0.544615379
6.198                0.768955181     0.529732267
6.209                0.775983618     0.514292485
6.22                 0.782842658      0.49827264
6.231                0.789506341     0.481648691
6.242                0.795945903     0.464396023
6.253                0.802129505     0.446489557
6.264                0.808021931     0.427903871
6.275                0.813584272     0.408613379
6.286                0.818773577     0.388592528
6.297                0.823542492     0.367816065
6.308                0.827838876     0.346259342
6.319                0.831605395     0.323898701
6.33                 0.834779109     0.300711928
6.341                 0.83729105     0.276678798
6.352                0.839065799     0.251781717
6.363                0.840021076     0.226006482
6.374                0.840067362     0.199343162
6.385                0.839107558     0.171787128
6.396                0.837036723      0.14334023
6.407                  0.8337419     0.114012146
6.418                0.829102088    0.0838219084
6.429                 0.82298838    0.0527996041
6.44                 0.815264337    0.0209882659
6.451                 0.80578664   -0.0115540707
6.462                0.794406099   -0.0447521585
6.473                0.780969078   -0.0785112161
6.484                0.765319421    -0.112714547
6.495                0.747300942    -0.147221182
6.506                0.726760568    -0.181863642
6.517                0.703552166    -0.216445973
6.528                0.677541115    -0.250742209
6.539                0.648609603     -0.28449546
6.55                 0.616662614    -0.317417868
6.561                0.581634491    -0.349191648
6.572                0.543495901    -0.379471487
6.583                0.502260924    -0.407888499
6.594                0.457993909    -0.434055933
6.605                0.410815675    -0.457576721
6.616                0.360908525     -0.47805285
6.627                0.308519543    -0.495096392
6.638                0.253961639    -0.508341846
6.649                0.197611877    -0.517459291
6.66                 0.139906746    -0.522167642
6.671               0.0813342581    -0.522247213
6.682               0.0224229652    -0.517550704
6.693               -0.036271699    -0.508011754
6.704              -0.0941831101    -0.493650326
6.715               -0.150750293      -0.4745744
6.726               -0.205434892    -0.450977722
6.737               -0.257737196    -0.423133692
6.748               -0.307210246    -0.391385799
6.759               -0.353471184     -0.35613526
6.77                -0.396209298    -0.317826759
6.781               -0.435190486    -0.276933241
6.792               -0.470258182    -0.233940728
6.803               -0.501331038     -0.18933403
6.814               -0.528397872    -0.143584028
6.825               -0.551510501    -0.097137021
6.836               -0.570775154     -0.05040639
6.847               -0.586343127  -0.00376665394
6.858               -0.598401249    0.0424502056
6.869               -0.607162682    0.0879563756
6.88                -0.612858386     0.132508109
6.891               -0.615729521     0.175904237
6.902               -0.616020908     0.217983639
6.913               -0.613975603        0.258622
6.924               -0.609830564     0.297728137
6.935               -0.603813323     0.335240132
6.946               -0.596139573     0.371121451
6.957               -0.587011545     0.405357209
6.968               -0.576617034     0.437950653
6.979               -0.565128976     0.468919946
6.99                -0.552705446     0.498295269
7.001               -0.539489973     0.526116269
7.012               -0.525612107     0.552429831
7.023               -0.511188141     0.577288172
7.034               -0.496321943     0.600747226
7.045                -0.48110585     0.622865289
7.056                -0.46562158     0.643701914
7.067               -0.449941145     0.663316996
7.078               -0.434127736     0.681770052
7.089               -0.418236567      0.69911965
7.1                 -0.402315676     0.715422963
7.111               -0.386406669     0.730735441
7.122                -0.37054541      0.74511057
7.133               -0.354762647     0.758599706
7.144               -0.339084594     0.771251969
7.155               -0.323533451     0.783114194
7.166               -0.308127873     0.794230908
7.177               -0.292883395     0.804644347
7.188               -0.277812812     0.814394497
7.199               -0.262926517      0.82351915
7.21                -0.248232804     0.832053974
7.221               -0.233738134     0.840032589
7.232               -0.219447377      0.84748666
7.243               -0.205364019     0.854445981
7.254                -0.19149035     0.860938569
7.265               -0.177827629     0.866990757
7.276               -0.164376229     0.872627282
7.287                -0.15113576     0.877871374
7.298               -0.138105187     0.882744848
7.309               -0.125282928     0.887268178
7.32                -0.112666933     0.891460587
7.331               -0.100254769     0.895340118
7.342              -0.0880436801     0.898923705
7.353              -0.0760306449     0.902227248
7.364              -0.0642124298     0.905265673
7.375              -0.0525856306     0.908052996
7.386              -0.0411467107     0.910602379
7.397              -0.0298920342     0.912926188
7.408              -0.0188178942     0.915036042
7.419             -0.00792053715     0.916942858
7.43               0.00280381564     0.918656902
7.441               0.0133589503     0.920187827
7.452               0.0237486447     0.921544712
7.463               0.0339766556     0.922736101
7.474                0.044046707     0.923770038
7.485               0.0539624813     0.924654093
7.496               0.0637276114       0.9253954
7.507                0.073345674     0.926000679
7.518               0.0828201844     0.926476267
7.529               0.0921545923     0.926828136
7.54                 0.101352279     0.927061923
7.551                0.110416552     0.927182944
7.562                0.119350649      0.92719622
7.573                 0.12815773     0.927106492
7.584                0.136840879     0.926918237
7.595                0.145403106      0.92663569
7.606                0.153847344      0.92626285
7.617                0.162176448     0.925803504
7.628                  0.1703932     0.925261233
7.639                0.178500306     0.924639426
7.65                 0.186500399     0.923941292
7.661                0.194396039     0.923169871
7.672                0.202189714     0.922328045
7.683                0.209883841     0.921418543
7.694                0.217480771     0.920443955
7.705                0.224982786     0.919406737
7.716                0.232392101     0.918309219
7.727                0.239710868     0.917153614
7.738                0.246941177     0.915942024
7.749                0.254085056     0.914676443
7.76                 0.261144473     0.913358768
7.771                 0.26812134     0.911990802
7.782                0.275017511     0.910574259
7.793                0.281834785     0.909110769
7.804                0.288574909     0.907601885
7.815                0.295239578     0.906049083
7.826                0.301830437     0.904453768
7.837                0.308349083      0.90281728
7.848                0.314797064     0.901140896
7.859                0.321175883      0.89942583
7.87                 0.327487001     0.897673241
7.881                0.333731831     0.895884236
7.892                 0.33991175     0.894059868
7.903                0.346028091     0.892201143
7.914                0.352082148     0.890309022
7.925                0.358075179      0.88838442
7.936                0.364008403     0.886428213
7.947                0.369883006     0.884441237
7.958                0.375700136      0.88242429
7.969                0.381460912     0.880378136
7.98                 0.387166417     0.878303505
7.991                0.392817705     0.876201093
8.002                0.398415798     0.874071568
8.013                0.403961689     0.871915569
8.024                0.409456344     0.869733705
8.035                  0.4149007     0.867526562
8.046                0.420295667     0.865294698
8.057                0.425642131      0.86303865
8.068                 0.43094095      0.86075893
8.079                0.436192961     0.858456029
8.09                 0.441398976     0.856130418
8.101                0.446559783     0.853782547
8.112                 0.45167615      0.85141285
8.123                0.456748822      0.84902174
8.134                0.461778525     0.846609615
8.145                0.466765963     0.844176855
8.156                0.471711821     0.841723825
8.167                0.476616767     0.839250875
8.178                0.481481447     0.836758342
8.189                0.486306493     0.834246547
8.2                  0.491092519     0.831715801
8.211                0.495840119     0.829166399
8.222                0.500549874     0.826598626
8.233                 0.50522235     0.824012756
8.244                0.509858095     0.821409051
8.255                0.514457644     0.818787763
8.266                0.519021516     0.816149133
8.277                0.523550218     0.813493393
8.288                0.528044243     0.810820766
8.299                 0.53250407     0.808131467
8.31                 0.536930166     0.805425699
8.321                0.541322985     0.802703661
8.332                0.545682969     0.799965541
8.343                0.550010549     0.797211521
8.354                0.554306144     0.794441775
8.365                0.558570162     0.791656471
8.376                   0.562803      0.78885577
8.387                0.567005046     0.786039824
8.398                0.571176677     0.783208782
8.409                0.575318259     0.780362787
8.42                 0.579430149     0.777501973
8.431                0.583512696     0.774626472
8.442                0.587566239     0.771736408
8.453                0.591591108     0.768831901
8.464                0.595587623     0.765913066
8.475                  0.5995561     0.762980012
8.486                0.603496841     0.760032846
8.497                0.607410145     0.757071668
8.508                0.611296301     0.754096574
8.519                 0.61515559     0.751107657
8.53                 0.618988287     0.748105003
8.541                 0.62279466     0.745088698
8.552                0.626574968     0.742058822
8.563                0.630329465     0.739015451
8.574                0.634058399     0.735958657
8.585                0.637762009     0.732888511
8.596                 0.64144053     0.729805078
8.607                0.645094189     0.726708421
8.618                 0.64872321     0.723598598
8.629                0.652327807     0.720475667
8.64                 0.655908192      0.71733968
8.651                 0.65946457     0.714190688
8.662                0.662997139     0.711028738
8.673                0.666506094     0.707853873
8.684                0.669991624     0.704666137
8.695                0.673453912     0.701465568
8.706                0.676893138     0.698252202
8.717                0.680309475     0.695026072
8.728                0.683703092     0.691787211
8.739                0.687074155     0.688535647
8.75                 0.690422823     0.685271407
8.761                0.693749252     0.681994513
8.772                0.697053592     0.678704988
8.783                0.700335991     0.675402851
8.794                0.703596591     0.672088118
8.805                0.706835531     0.668760806
8.816                0.710052945     0.665420925
8.827                0.713248964     0.662068488
8.838                0.716423714     0.658703501
8.849                0.719577319     0.655325971
8.86                 0.722709897     0.651935903
8.871                0.725821564     0.648533297
8.882                0.728912432     0.645118155
8.893                0.731982608     0.641690473
8.904                0.735032198     0.638250248
8.915                0.738061303     0.634797474
8.926                0.741070021     0.631332142
8.937                0.744058446     0.627854243
8.948                0.747026669     0.624363764
8.959                0.749974778     0.620860692
8.97                  0.75290286      0.61734501
8.981                0.755810993     0.613816701
8.992                0.758699259     0.610275744
9.003                0.761567731     0.606722118
9.014                0.764416483     0.603155799
9.025                0.767245583     0.599576762
9.036                0.770055098     0.595984978
9.047                0.772845092     0.592380418
9.058                0.775615625     0.588763051
9.069                0.778366755     0.585132842
9.08                 0.781098535     0.581489757
9.091                 0.78381102     0.577833757
9.102                0.786504256     0.574164803
9.113                0.789178292     0.570482854
9.124                0.791833169     0.566787866
9.135                0.794468929     0.563079792
9.146                 0.79708561     0.559358586
9.157                0.799683246     0.555624197
9.168                0.802261871     0.551876574
9.179                0.804821514     0.548115662
9.19                 0.807362201     0.544341404
9.201                0.809883957     0.540553743
9.212                0.812386804     0.536752617
9.223                0.814870759     0.532937964
9.234                 0.81733584     0.529109718
9.245                0.819782058     0.525267812
9.256                0.822209425     0.521412175
9.267                0.824617948     0.517542735
9.278                0.827007633     0.513659418
9.289                 0.82937848     0.509762146
9.3                   0.83173049      0.50585084
9.311                0.834063658     0.501925416
9.322                 0.83637798     0.497985791
9.333                0.838673444     0.494031876
9.344                0.840950039     0.490063582
9.355                0.843207751     0.486080815
9.366                 0.84544656      0.48208348
9.377                0.847666446     0.478071478
9.388                0.849867385     0.474044707
9.399                0.852049349     0.470003063
9.41                 0.854212309     0.465946439
9.421                0.856356231     0.461874723
9.432                0.858481079     0.457787803
9.443                0.860586813      0.45368556
9.454                0.862673389     0.449567875
9.465                0.864740761     0.445434625
9.476                 0.86678888     0.441285682
9.487                0.868817692     0.437120915
9.498                 0.87082714      0.43294019
9.509                0.872817163      0.42874337
9.52                 0.874787698     0.424530313
9.531                0.876738677     0.420300873
9.542                0.878670028     0.416054902
9.553                0.880581675     0.411792245
9.564                0.882473539     0.407512745
9.575                0.884345535      0.40321624
9.586                0.886197576     0.398902565
9.597                0.888029569     0.394571548
9.608                0.889841418     0.390223015
9.619                0.891633021     0.385856785
9.63                 0.893404272     0.381472674
9.641                0.895155061     0.377070493
9.652                0.896885272     0.372650047
9.663                0.898594784     0.368211136
9.674                0.900283471     0.363753556
9.685                0.901951202     0.359277095
9.696                 0.90359784     0.354781539
9.707                0.905223243     0.350266664
9.718                0.906827262     0.345732244
9.729                0.908409743     0.341178045
9.74                 0.909970525     0.336603827
9.751                0.911509441     0.332009343
9.762                0.913026318     0.327394341
9.773                0.914520975     0.322758561
9.784                0.915993224     0.318101737
9.795                 0.91744287     0.313423595
9.806                 0.91886971     0.308723855
9.817                0.920273535     0.304002227
9.828                0.921654126     0.299258416
9.839                0.923011255     0.294492117
9.85                 0.924344687     0.289703019
9.861                0.925654178     0.284890801
9.872                0.926939472     0.280055132
9.883                0.928200306     0.275195676
9.894                0.929436407     0.270312085
9.905                 0.93064749     0.265404001
9.916                0.931833259     0.260471059
9.927                0.932993407     0.255512882
9.938                0.934127617     0.250529083
9.949                0.935235558     0.245519265
9.96                 0.936316886     0.240483019
9.971                0.937371246     0.235419927
9.982                0.938398265     0.230329556
9.993                0.939397561     0.225211465
10.004               0.940368732     0.220065198
10.015               0.941311365     0.214890288
10.026               0.942225028     0.209686253
10.037               0.943109272     0.204452599
10.048               0.943963632     0.199188819
10.059               0.944787622     0.193894391
10.07                0.945580741     0.188568776
10.081               0.946342464     0.183211425
10.092               0.947072246     0.177821768
10.103               0.947769521     0.172399223
10.114               0.948433699      0.16694319
10.125               0.949064168     0.161453051
10.136                0.94966029     0.155928172
10.147               0.950221398     0.150367901
10.158               0.950746802     0.144771566
10.169               0.951235781     0.139138476
10.18                0.951687584     0.133467922
10.191               0.952101428     0.127759174
10.202               0.952476499     0.122011478
10.213               0.952811945     0.116224064
10.224               0.953106881     0.110396134
10.235               0.953360382     0.104526871
10.246               0.953571482    0.0986154331
10.257               0.953739176    0.0926609539
10.268                0.95386241    0.0866625425
10.279               0.953940089    0.0806192819
10.29                0.953971065     0.074530229
10.301                0.95395414    0.0683944132
10.312               0.953888061    0.0622108362
10.323               0.953771519    0.0559784708
10.334               0.953603144    0.0496962605
10.345               0.953381504    0.0433631183
10.356               0.953105099    0.0369779264
10.367               0.952772358     0.030539535
10.378               0.952381638    0.0240467617
10.389               0.951931216    0.0174983908
10.4                 0.951419286    0.0108931724
10.411               0.950843955   0.00422982167
10.422               0.950203238  -0.00249298174
10.433               0.949495053  -0.00927659452
10.444               0.948717212   -0.0161224103
10.455               0.947867419   -0.0230318601
10.466               0.946943265   -0.0300064133
10.477               0.945942214   -0.0370475776
10.488               0.944861602   -0.0441568996
10.499               0.943698628   -0.0513359653
10.51                0.942450345   -0.0585863999
10.521               0.941113649    -0.065909868
10.532               0.939685274   -0.0733080734
10.543               0.938161779   -0.0807827588
10.554               0.936539536   -0.0883357053
10.565               0.934814721   -0.0959687314
10.576                 0.9329833    -0.103683692
10.587               0.931041018    -0.111482477
10.598               0.928983379    -0.119367009
10.609               0.926805638    -0.127339241
10.62                0.924502779    -0.135401156
10.631                 0.9220695    -0.143554759
10.642               0.919500192    -0.151802076
10.653               0.916788923    -0.160145148
10.664               0.913929411    -0.168586028
10.675               0.910915004    -0.177126768
10.686               0.907738655    -0.185769418
10.697               0.904392892    -0.194516011
10.708               0.900869792    -0.203368556
10.719                0.89716095    -0.212329024
10.73                0.893257446    -0.221399333
10.741               0.889149807     -0.23058133
10.752               0.884827969    -0.239876776
10.763               0.880281242    -0.249287317
10.774               0.875498256    -0.258814466
10.785               0.870466924    -0.268459565
10.796               0.865174385    -0.278223757
10.807               0.859606954    -0.288107948
10.818               0.853750063    -0.298112755
10.829               0.847588202    -0.308238462
10.84                 0.84110485     -0.31848496
10.851               0.834282413    -0.328851678
10.862               0.827102146    -0.339337508
10.873               0.819544078    -0.349940716
10.884               0.811586932    -0.360658847
10.895               0.803208041    -0.371488606
10.9                 0.799253561    -0.376447011
10.906               0.794383261    -0.382425728
10.917               0.785086881    -0.393464835
10.928                0.77529153    -0.404599263
10.939               0.764968086    -0.415820869
10.95                0.754085586    -0.427119817
10.961                0.74261113    -0.438484324
10.972               0.730509805    -0.449900381
10.983               0.717744602    -0.461351432
10.994               0.704276357    -0.472818011
11.005                 0.6900637    -0.484277331
11.016               0.675063032    -0.495702825
11.027               0.659228538    -0.507063621
11.038               0.642512231    -0.518323962
11.049               0.624864055    -0.529442552
11.06                0.606232059     -0.54037183
11.071               0.586562646    -0.551057166
11.082               0.565800942    -0.561435977
11.093                0.54389128    -0.571436764
11.104               0.520777863    -0.580978069
11.115               0.496405604     -0.58996736
11.126               0.470721216    -0.598299866
11.137                0.44367457     -0.60585737
11.148               0.415220387    -0.612507007
11.159               0.385320308    -0.618100108
11.17                0.353945395    -0.622471151
11.181               0.321079118    -0.625436917
11.192               0.286720873     -0.62679595
11.203               0.250890056    -0.626328478
11.214               0.213630695    -0.623796949
11.225               0.175016627    -0.618947403
11.236               0.135157113    -0.611511911
11.247              0.0942027564    -0.601212324
11.258              0.0523514669    -0.587765613
11.269             0.00985413465    -0.570891022
11.28              -0.0329804689    -0.550319222
11.291             -0.0757821513    -0.525803556
11.302              -0.118117828    -0.497133281
11.313              -0.159492894     -0.46414851
11.324              -0.199356227     -0.42675626
11.335              -0.237109491     -0.38494671
11.346              -0.272121216    -0.338808429
11.357               -0.30374572    -0.288541091
11.368               -0.33134645    -0.234464018
11.379              -0.354322712    -0.177018974
11.39               -0.372138122    -0.116765883
11.401              -0.384348603   -0.0543707442
11.412              -0.390627431   0.00941423823
11.423              -0.390784861    0.0737773694
11.434               -0.38478022     0.137879191
11.445              -0.372725113     0.200886703
11.456              -0.354877329     0.262007196
11.467              -0.331626105     0.320518837
11.478               -0.30347031     0.375795628
11.489              -0.270991805     0.427325077
11.5                -0.234826523     0.474717879
11.511              -0.195635757     0.517709765
11.522              -0.154079764     0.556156458
11.533              -0.110795232     0.590023181
11.544             -0.0663774998     0.619370389
11.555             -0.0213678225     0.644337398
11.566              0.0237545267     0.665125406
11.577              0.0685758791     0.681981071
11.588               0.112748273      0.69518151
11.599               0.155986868     0.705021229
11.61                0.198065462     0.711801221
11.621               0.238810837     0.715820256
11.632               0.278096498     0.717368232
11.643               0.315836276     0.716721368
11.654                0.35197812     0.714138961
11.665               0.386498283     0.709861437
11.676               0.419396066     0.704109421
11.687                0.45068914     0.697083591
11.698               0.480409503     0.688965108
11.709               0.508600016     0.679916447
11.72                0.535311503     0.670082494
11.731               0.560600344     0.659591804
11.742               0.584526508     0.648557921
11.753               0.607151978     0.637080728
11.764               0.628539486      0.62524776
11.775               0.648751544     0.613135457
11.786               0.667849682     0.600810348
11.797               0.685893892     0.588330143
11.808               0.702942213     0.575744738
11.819               0.719050454     0.563097124
11.83                0.734271997     0.550424209
11.841               0.748657699      0.53775756
11.852               0.762255838     0.525124057
11.863               0.775112118     0.512546482
11.874               0.787269703     0.500044035
11.885               0.798769279     0.487632797
11.896               0.809649137      0.47532613
11.907               0.819945265     0.463135039
11.918               0.829691454     0.451068475
11.929               0.838919404     0.439133622
11.94                0.847658836     0.427336124
11.951               0.855937599     0.415680305
11.962               0.863781783     0.404169348
11.973               0.871215819     0.392805456
11.984               0.878262586     0.381589995
11.995               0.884943508     0.370523611
12.006               0.891278644     0.359606338
12.017                0.89728678     0.348837695
12.028               0.902985511     0.338216761
12.039               0.908391321     0.327742246
12.05                0.913519657     0.317412555
12.061               0.918384995     0.307225838
12.072               0.923000912     0.297180036
12.083               0.927380138     0.287272921
12.094               0.931534622      0.27750213
12.105               0.935475576     0.267865197
12.116               0.939213532     0.258359574
12.127               0.942758382     0.248982657
12.138               0.946119424     0.239731802
12.149               0.949305401     0.230604343
12.16                0.952324536     0.221597605
12.171               0.955184571     0.212708918
12.182               0.957892794     0.203935621
12.193               0.960456069     0.195275076
12.204               0.962880868     0.186724675
12.215               0.965173293     0.178281843
12.226                 0.9673391     0.169944042
12.237               0.969383723     0.161708779
12.248                0.97131229     0.153573608
12.259               0.973129651     0.145536129
12.27                0.974840385     0.137593995
12.281               0.976448827     0.129744909
12.292               0.977959074     0.121986628
12.303               0.979375008     0.114316963
12.314               0.980700303     0.106733778
12.325               0.981938441    0.0992349926
12.336                0.98309272     0.091818578
12.347               0.984166273    0.0844825607
12.358               0.985162066    0.0772250196
12.369                0.98608292     0.070044086
12.38                 0.98693151    0.0629379428
12.391                0.98771038    0.0559048235
12.402               0.988421946    0.0489430114
12.413               0.989068507    0.0420508387
12.424               0.989652249    0.0352266851
12.435               0.990175252    0.0284689771
12.446               0.990639499    0.0217761867
12.457               0.991046876    0.0151468303
12.468                0.99139918   0.00857946766
12.479               0.991698128   0.00207270053
12.49                0.991945353  -0.00437482822
12.501               0.992142415   -0.0107644359