! TOUCHSTONE file generated by CST MICROWAVE STUDIO
! Date and time: Mon Jan 20 16:13:07 2025
! Project name: unitcell.cst
! Parameters = {A=1.06616; AB_sqInv=0.879244; B=0.025494; C0=2.097; Cj=1.13367; Cp=0.075; Ct=1.19832; ImZ=-13.2815; L=10; L1=0.3; Lp=0.35; Lpad=0.75; M=1.199; R=5.41; ReZ=4.75671; Rt=4.75671; V=2; Vj=2.984; W=10; W1=-0.15; W2=-0.15; Wcoop=3.29; Wgap=1; Wline=1.42; Wpad=0.475; Wpadgap=0.35; Xpad1=1.6225; Xpad2=0.7975; Xpad3=1.6225; Xpad4=0.7975; Xvar_centre=1.21; f=0.01; f0=11; fmax=11.25; fmin=10.75; h=0.8; phi=0; th=0.035; theta=0}
! Header version: 2024
! Port assignment regex: !\s*Touchstone port\s*([0-9]+)\s*=\s*(CST MWS port|CST DES external port|CST DES block port)\s*(.+)\s* \(\"(.*)\"\)(\s*mode\s*([0-9]+))?.*
! Touchstone port assignment:
! Touchstone port 1 = CST MWS port Zmax ("") mode 1
! S-Parameters are not renormalized. Unphysical impedance of 0 will be written to the file.
# GHz S RI R 0
6                    0.191858444     0.964398507
6.011                0.195329671     0.963716371
6.022                0.198799874     0.963021138
6.033                 0.20226901     0.962312796
6.044                0.205737039     0.961591339
6.055                0.209203919     0.960856755
6.066                0.212669609     0.960109036
6.077                0.216134066     0.959348173
6.088                0.219597251     0.958574156
6.099                 0.22305912     0.957786976
6.11                 0.226519634     0.956986624
6.121                0.229978749      0.95617309
6.132                0.233436426     0.955346367
6.143                0.236892622     0.954506443
6.154                0.240347296      0.95365331
6.165                0.243800406     0.952786959
6.176                0.247251911     0.951907381
6.187                 0.25070177     0.951014567
6.198                0.254149941     0.950108506
6.209                0.257596383     0.949189191
6.22                 0.261041054     0.948256611
6.231                0.264483912     0.947310757
6.242                0.267924917     0.946351621
6.253                0.271364027     0.945379193
6.264                0.274801199     0.944393464
6.275                0.278236394     0.943394423
6.286                0.281669569     0.942382063
6.297                0.285100683     0.941356373
6.308                0.288529694     0.940317344
6.319                0.291956561     0.939264967
6.33                 0.295381243     0.938199232
6.341                0.298803697      0.93712013
6.352                0.302223883     0.936027651
6.363                0.305641759     0.934921785
6.374                0.309057283     0.933802523
6.385                0.312470413     0.932669855
6.396                0.315881109     0.931523772
6.407                0.319289329     0.930364263
6.418                0.322695031     0.929191318
6.429                0.326098173     0.928004929
6.44                 0.329498715     0.926805084
6.451                0.332896613     0.925591774
6.462                0.336291828     0.924364988
6.473                0.339684317     0.923124716
6.484                0.343074038     0.921870949
6.495                 0.34646095     0.920603675
6.506                0.349845011     0.919322885
6.517                 0.35322618     0.918028567
6.528                0.356604415     0.916720711
6.539                0.359979674     0.915399307
6.55                 0.363351916     0.914064344
6.561                0.366721098      0.91271581
6.572                0.370087179     0.911353695
6.583                0.373450117     0.909977987
6.594                0.376809871     0.908588676
6.605                0.380166398     0.907185751
6.616                0.383519656     0.905769199
6.627                0.386869604     0.904339009
6.638                0.390216201     0.902895169
6.649                0.393559402     0.901437669
6.66                 0.396899168     0.899966495
6.671                0.400235456     0.898481636
6.682                0.403568223     0.896983079
6.693                0.406897428     0.895470812
6.704                0.410223029     0.893944824
6.715                0.413544984       0.8924051
6.726                0.416863249     0.890851629
6.737                0.420177784     0.889284397
6.748                0.423488546     0.887703391
6.759                0.426795492     0.886108598
6.77                  0.43009858     0.884500005
6.781                0.433397768     0.882877598
6.792                0.436693013     0.881241363
6.803                0.439984273     0.879591286
6.814                0.443271505     0.877927353
6.825                0.446554667      0.87624955
6.836                0.449833716     0.874557862
6.847                 0.45310861     0.872852274
6.858                0.456379305     0.871132772
6.869                0.459645758     0.869399339
6.88                 0.462907927     0.867651962
6.891                0.466165769     0.865890624
6.902                0.469419241     0.864115309
6.913                  0.4726683     0.862326001
6.924                0.475912902     0.860522685
6.935                0.479153004     0.858705342
6.946                0.482388563     0.856873957
6.957                0.485619536     0.855028513
6.968                0.488845878     0.853168992
6.979                0.492067547     0.851295377
6.99                 0.495284499     0.849407649
7.001                 0.49849669      0.84750579
7.012                0.501704075     0.845589783
7.023                0.504906612     0.843659609
7.034                0.508104257     0.841715248
7.045                0.511296964      0.83975668
7.056                0.514484689     0.837783888
7.067                0.517667389     0.835796849
7.078                0.520845019     0.833795546
7.089                0.524017534     0.831779955
7.1                   0.52718489     0.829750058
7.111                0.530347041     0.827705832
7.122                0.533503943     0.825647255
7.133                0.536655551     0.823574307
7.144                0.539801819     0.821486964
7.155                0.542942701     0.819385203
7.166                0.546078153     0.817269003
7.177                0.549208129     0.815138338
7.188                0.552332583     0.812993186
7.199                0.555451469     0.810833522
7.21                  0.55856474     0.808659321
7.221                0.561672351     0.806470558
7.232                0.564774255     0.804267208
7.243                0.567870405     0.802049244
7.254                0.570960755     0.799816641
7.265                0.574045257      0.79756937
7.276                0.577123865     0.795307406
7.287                 0.58019653      0.79303072
7.298                0.583263205     0.790739283
7.309                0.586323843     0.788433068
7.32                 0.589378396     0.786112044
7.331                0.592426814     0.783776182
7.342                 0.59546905     0.781425451
7.353                0.598505055     0.779059821
7.364                0.601534781      0.77667926
7.375                0.604558176     0.774283737
7.386                0.607575194     0.771873218
7.397                0.610585783     0.769447671
7.408                0.613589893     0.767007062
7.419                0.616587476     0.764551356
7.43                 0.619578479     0.762080519
7.441                0.622562852     0.759594516
7.452                0.625540544      0.75709331
7.463                0.628511505     0.754576863
7.474                0.631475681      0.75204514
7.485                0.634433021     0.749498102
7.496                0.637383472     0.746935709
7.507                0.640326983     0.744357924
7.518                0.643263499     0.741764704
7.529                0.646192968      0.73915601
7.54                 0.649115335     0.736531799
7.551                0.652030547      0.73389203
7.562                0.654938549     0.731236659
7.573                0.657839286     0.728565642
7.584                0.660732703     0.725878935
7.595                0.663618744     0.723176491
7.606                0.666497353     0.720458266
7.617                0.669368473      0.71772421
7.628                0.672232047     0.714974277
7.639                0.675088018     0.712208417
7.65                 0.677936327     0.709426581
7.661                0.680776917     0.706628717
7.672                0.683609728     0.703814775
7.683                  0.6864347     0.700984701
7.694                0.689251774     0.698138442
7.705                 0.69206089     0.695275943
7.716                0.694861985      0.69239715
7.727                0.697654998     0.689502004
7.738                0.700439868      0.68659045
7.749                 0.70321653     0.683662427
7.76                 0.705984922     0.680717877
7.771                0.708744979     0.677756738
7.782                0.711496637     0.674778949
7.793                0.714239829     0.671784447
7.804                0.716974491     0.668773167
7.815                0.719700554     0.665745044
7.826                0.722417952     0.662700011
7.837                0.725126616        0.659638
7.848                0.727826477     0.656558943
7.859                0.730517465     0.653462769
7.87                 0.733199509     0.650349406
7.881                0.735872538     0.647218782
7.892                0.738536479     0.644070821
7.903                0.741191259     0.640905448
7.914                0.743836805     0.637722586
7.925                0.746473039     0.634522157
7.936                0.749099888     0.631304079
7.947                0.751717273     0.628068273
7.958                0.754325117     0.624814654
7.969                 0.75692334     0.621543138
7.98                 0.759511863     0.618253639
7.991                0.762090604     0.614946069
8.002                0.764659481     0.611620338
8.013                 0.76721841     0.608276356
8.024                0.769767308     0.604914029
8.035                0.772306087     0.601533263
8.046                 0.77483466     0.598133961
8.057                 0.77735294     0.594716026
8.068                0.779860837     0.591279357
8.079                 0.78235826     0.587823853
8.09                 0.784845115     0.584349408
8.101                 0.78732131     0.580855919
8.112                0.789786748     0.577343276
8.123                0.792241333     0.573811369
8.134                0.794684967     0.570260088
8.145                0.797117549     0.566689318
8.156                0.799538978     0.563098941
8.167                0.801949151     0.559488841
8.178                0.804347962     0.555858896
8.189                0.806735304     0.552208984
8.2                  0.809111068     0.548538978
8.211                0.811475145     0.544848751
8.222                0.813827421     0.541138172
8.233                0.816167781      0.53740711
8.244                 0.81849611     0.533655428
8.255                0.820812288     0.529882989
8.266                0.823116194     0.526089652
8.277                0.825407706     0.522275273
8.288                0.827686696     0.518439707
8.299                0.829953039     0.514582805
8.31                 0.832206602     0.510704416
8.321                0.834447254     0.506804383
8.332                0.836674858      0.50288255
8.343                0.838889277     0.498938755
8.354                0.841090369     0.494972836
8.365                0.843277991     0.490984624
8.376                0.845451996      0.48697395
8.387                0.847612234     0.482940639
8.398                0.849758552     0.478884514
8.409                0.851890795     0.474805396
8.42                 0.854008802     0.470703099
8.431                0.856112411     0.466577435
8.442                0.858201456     0.462428215
8.453                0.860275767     0.458255241
8.464                 0.86233517     0.454058315
8.475                0.864379487     0.449837235
8.486                0.866408537     0.445591792
8.497                0.868422135     0.441321776
8.508                0.870420091     0.437026972
8.519                0.872402211     0.432707159
8.53                 0.874368295     0.428362113
8.541                0.876318141     0.423991607
8.552                0.878251541     0.419595407
8.563                0.880168282     0.415173276
8.574                0.882068145      0.41072497
8.585                0.883950908     0.406250242
8.596                0.885816341     0.401748841
8.607                0.887664211     0.397220509
8.618                0.889494276     0.392664982
8.629                0.891306292     0.388081995
8.64                 0.893100006     0.383471272
8.651                0.894875159     0.378832535
8.662                0.896631485     0.374165501
8.673                0.898368713     0.369469878
8.684                0.900086565     0.364745371
8.695                0.901784752     0.359991677
8.706                0.903462982     0.355208489
8.717                0.905120953     0.350395491
8.728                0.906758355     0.345552364
8.739                 0.90837487     0.340678779
8.75                 0.909970172     0.335774403
8.761                0.911543925     0.330838894
8.772                0.913095784     0.325871905
8.783                0.914625396     0.320873081
8.794                0.916132396      0.31584206
8.805                0.917616409     0.310778472
8.816                0.919077053      0.30568194
8.827                0.920513929     0.300552078
8.838                0.921926632     0.295388495
8.849                0.923314743      0.29019079
8.86                 0.924677831     0.284958553
8.871                0.926015452     0.279691367
8.882                 0.92732715     0.274388806
8.893                0.928612454     0.269050436
8.904                0.929870882     0.263675813
8.915                0.931101934     0.258264484
8.926                0.932305097     0.252815988
8.937                0.933479842     0.247329853
8.948                0.934625623       0.2418056
8.959                0.935741878     0.236242736
8.97                 0.936828028     0.230640761
8.981                0.937883476     0.224999165
8.992                0.938907604     0.219317427
9.003                0.939899778     0.213595014
9.014                0.940859341     0.207831386
9.025                0.941785616     0.202025987
9.036                0.942677904     0.196178254
9.047                0.943535485     0.190287612
9.058                0.944357612     0.184353473
9.069                0.945143518     0.178375238
9.08                 0.945892407     0.172352297
9.091                0.946603457     0.166284027
9.102                0.947275822     0.160169794
9.113                0.947908623      0.15400895
9.124                0.948500954     0.147800835
9.135                0.949051877     0.141544778
9.146                0.949560422     0.135240094
9.157                0.950025587     0.128886083
9.168                0.950446334     0.122482035
9.179                0.950821589     0.116027226
9.19                 0.951150239     0.109520918
9.201                0.951431135      0.10296236
9.212                0.951663084    0.0963507863
9.223                0.951844852      0.08968542
9.234                0.951975161    0.0829654691
9.245                0.952052686    0.0761901283
9.256                0.952076053    0.0693585786
9.267                 0.95204384    0.0624699877
9.278                0.951954571    0.0555235097
9.289                0.951806717    0.0485182854
9.3                   0.95159869    0.0414534422
9.311                0.951328844    0.0343280948
9.322                0.950995472    0.0271413448
9.333                0.950596801    0.0198922814
9.344                 0.95013099    0.0125799816
9.355                0.949596129   0.00520351072
9.366                0.948990235  -0.00223807733
9.377                0.948311247  -0.00974573935
9.388                0.947557025   -0.0173204423
9.399                0.946725343   -0.0249631625
9.41                 0.945813892   -0.0326748849
9.421                0.944820268    -0.040456602
9.432                0.943741974   -0.0483093131
9.443                0.942576411   -0.0562340228
9.454                0.941320878   -0.0642317399
9.465                0.939972564   -0.0723034757
9.476                0.938528545   -0.0804502426
9.487                0.936985779   -0.0886730521
9.498                0.935341097   -0.0969729129
9.509                0.933591203    -0.105350829
9.52                 0.931732663    -0.113807795
9.531                0.929761902    -0.122344797
9.542                0.927675197    -0.130962807
9.553                0.925468667     -0.13966278
9.564                0.923138272    -0.148445651
9.575                0.920679799    -0.157312328
9.586                0.918088859    -0.166263694
9.597                0.915360878    -0.175300592
9.608                0.912491086    -0.184423831
9.619                 0.90947451    -0.193634171
9.63                 0.906305965     -0.20293232
9.641                0.902980045    -0.212318928
9.652                 0.89949111    -0.221794575
9.663                0.895833279    -0.231359768
9.674                0.892000417    -0.241014925
9.685                0.887986126     -0.25076037
9.696                 0.88378373    -0.260596319
9.707                0.879386265    -0.270522868
9.718                0.874786467    -0.280539978
9.729                0.869976759    -0.290647465
9.74                 0.864949235    -0.300844975
9.751                0.859695651    -0.311131976
9.762                0.854207407    -0.321507731
9.773                0.848475537    -0.331971282
9.784                0.842490688    -0.342521421
9.795                0.836243114    -0.353156673
9.806                0.829722654     -0.36387526
9.817                0.822918721    -0.374675078
9.828                0.815820287     -0.38555366
9.839                0.808415867    -0.396508141
9.85                 0.800693506    -0.407535224
9.861                0.792640767    -0.418631131
9.872                0.784244715    -0.429791564
9.883                 0.77549191    -0.441011652
9.894                 0.76636839      -0.4522859
9.905                0.756859669    -0.463608128
9.916                0.746950724    -0.474971412
9.927                0.736625995    -0.486368014
9.938                0.725869381     -0.49778931
9.949                0.714664243    -0.509225714
9.96                  0.70299341    -0.520666587
9.971                0.690839187    -0.532100152
9.982                0.678183376    -0.543513396
9.993                0.665007295    -0.554891964
10.004               0.651291811    -0.566220048
10.015               0.637017378    -0.577480271
10.026               0.622164088    -0.588653561
10.037               0.606711732    -0.599719018
10.048               0.590639871    -0.610653774
10.059                0.57392793    -0.621432849
10.07                0.556555303    -0.632028999
10.081               0.538501476    -0.642412558
10.092               0.519746175    -0.652551275
10.103               0.500269537    -0.662410152
10.114               0.480052305    -0.671951276
10.125               0.459076054    -0.681133655
10.136               0.437323449    -0.689913058
10.147               0.414778534    -0.698241859
10.158               0.391427064    -0.706068893
10.169               0.367256871    -0.713339331
10.18                0.342258274    -0.719994572
10.191               0.316424537    -0.725972163
10.202               0.289752362    -0.731205759
10.213               0.262242443    -0.735625118
10.224               0.233900048    -0.739156158
10.235               0.204735659    -0.741721072
10.246               0.174765643    -0.743238516
10.257               0.144012964    -0.743623889
10.268               0.112507916    -0.742789705
10.279              0.0802888794    -0.740646086
10.29               0.0474030733     -0.73710137
10.301              0.0139073032    -0.732062857
10.312             -0.0201313315    -0.725437709
10.323             -0.0546347842    -0.717133991
10.334             -0.0895134925     -0.70706188
10.345              -0.124665926     -0.69513503
10.356              -0.159978285    -0.681272089
10.367              -0.195324378    -0.665398364
10.378              -0.230565731    -0.647447601
10.389               -0.26555195    -0.627363863
10.4                -0.300121372    -0.605103472
10.411              -0.334102044    -0.580636954
10.422              -0.367313042    -0.553950946
10.433              -0.399566143    -0.525049996
10.444              -0.430667856    -0.493958184
10.455              -0.460421785    -0.460720496
10.466              -0.488631312    -0.425403874
10.477               -0.51510253    -0.388097868
10.488              -0.539647373    -0.348914832
10.499              -0.562086861    -0.307989615
10.51               -0.582254363    -0.265478702
10.521               -0.59999876    -0.221558801
10.532               -0.61518743    -0.176424888
10.543              -0.627708907    -0.130287729
10.554              -0.637475143   -0.0833709548
10.565               -0.64442327   -0.0359077592
10.576              -0.648516795    0.0118626774
10.587              -0.649746183    0.0596989212
10.598              -0.648128816     0.107361057
10.609              -0.643708313     0.154614375
10.62                -0.63655328     0.201232855
10.631              -0.626755513     0.247002343
10.642              -0.614427761     0.291723334
10.653              -0.599701126     0.335213291
10.664              -0.582722201     0.377308464
10.675              -0.563650069     0.417865177
10.686              -0.542653238     0.456760601
10.697              -0.519906631     0.493893022
10.708              -0.495588696     0.529181654
10.719              -0.469878717     0.562566047
10.73               -0.442954369     0.594005144
10.741              -0.414989566     0.623476066
10.752              -0.386152608     0.650972682
10.763              -0.356604654     0.676504031
10.774              -0.326498498     0.700092658
10.785              -0.295977655     0.721772919
10.796              -0.265175713      0.74158929
10.807              -0.234215948     0.759594736
10.818              -0.203211151     0.775849156
10.829              -0.172263657     0.790417925
10.84               -0.141465521     0.803370566
10.851              -0.110898838     0.814779541
10.862             -0.0806361543     0.824719172
10.873             -0.0507409624     0.833264698
10.884             -0.0212682451     0.840491457
10.895             0.00773494334     0.846474188
10.9                0.0207519953     0.848802314
10.906              0.0362288788     0.851286448
10.917              0.0641805659     0.855000132
10.928              0.0915631437     0.857685084
10.939               0.118355308     0.859408802
10.95                0.144540754     0.860236204
10.961               0.170107655     0.860229467
10.972                0.19504816     0.859447923
10.983               0.219357934     0.857947998
10.994               0.243035731      0.85578319
11.005               0.266082999     0.853004089
11.016               0.288503516     0.849658411
11.027               0.310303069     0.845791066
11.038               0.331489153     0.841444235
11.049               0.352070706     0.836657464
11.06                0.372057868     0.831467765
11.071               0.391461771     0.825909725
11.082               0.410294345     0.820015621
11.093               0.428568156     0.813815533
11.104               0.446296255      0.80733746
11.115               0.463492048     0.800607434
11.126               0.480169185     0.793649637
11.137               0.496341462     0.786486504
11.148               0.512022736     0.779138837
11.159               0.527226849       0.7716259
11.17                0.541967572     0.763965524
11.181               0.556258546     0.756174198
11.192               0.570113243     0.748267156
11.203               0.583544924     0.740258466
11.214               0.596566613     0.732161107
11.225               0.609191069     0.723987047
11.236               0.621430767     0.715747308
11.247               0.633297885     0.707452042
11.258               0.644804288     0.699110584
11.269               0.655961524     0.690731518
11.28                0.666780817     0.682322727
11.291               0.677273061     0.673891444
11.302               0.687448826     0.665444305
11.313                0.69731835     0.656987385
11.324               0.706891551     0.648526247
11.335               0.716178022     0.640065975
11.346               0.725187039     0.631611214
11.357                0.73392757     0.623166199
11.368               0.742408276     0.614734789
11.379               0.750637519     0.606320494
11.39                0.758623372     0.597926501
11.401               0.766373623     0.589555702
11.412               0.773895786     0.581210712
11.423               0.781197105     0.572893893
11.434               0.788284566     0.564607373
11.445               0.795164904     0.556353066
11.456               0.801844609     0.548132685
11.467               0.808329938     0.539947759
11.478               0.814626917      0.53179965
11.489               0.820741355     0.523689562
11.5                 0.826678848     0.515618558
11.511                0.83244479     0.507587567
11.522               0.838044375     0.499597398
11.533               0.843482608     0.491648747
11.544               0.848764312     0.483742209
11.555               0.853894135     0.475878282
11.566               0.858876552     0.468057381
11.577                0.86371588     0.460279839
11.588               0.868416275     0.452545917
11.599               0.872981744     0.444855811
11.61                 0.87741615     0.437209652
11.621               0.881723215      0.42960752
11.632               0.885906528      0.42204944
11.643               0.889969548     0.414535393
11.654               0.893915612     0.407065318
11.665               0.897747936     0.399639113
11.676               0.901469624     0.392256643
11.687               0.905083669     0.384917742
11.698               0.908592956     0.377622212
11.709               0.912000273     0.370369833
11.72                0.915308307     0.363160359
11.731               0.918519652     0.355993524
11.742               0.921636813     0.348869043
11.753               0.924662208     0.341786614
11.764               0.927598169     0.334745921
11.775               0.930446952     0.327746633
11.786               0.933210735     0.320788408
11.797               0.935891619     0.313870897
11.808               0.938491637     0.306993736
11.819               0.941012754      0.30015656
11.83                0.943456866     0.293358992
11.841               0.945825808     0.286600654
11.852               0.948121354     0.279881159
11.863                0.95034522     0.273200122
11.874               0.952499062      0.26655715
11.885               0.954584487     0.259951851
11.896               0.956603046      0.25338383
11.907               0.958556241     0.246852694
11.918               0.960445525     0.240358047
11.929               0.962272307     0.233899494
11.94                0.964037947     0.227476643
11.951               0.965743764     0.221089099
11.962               0.967391037     0.214736474
11.973               0.968981002     0.208418377
11.984               0.970514858     0.202134424
11.995               0.971993766     0.195884229
12.006               0.973418851     0.189667413
12.017               0.974791205     0.183483598
12.028               0.976111885     0.177332409
12.039               0.977381917     0.171213477
12.05                0.978602294     0.165126434
12.061               0.979773982     0.159070918
12.072               0.980897916     0.153046569
12.083               0.981975005     0.147053033
12.094               0.983006128     0.141089959
12.105               0.983992141        0.135157
12.116               0.984933875     0.129253816
12.127               0.985832135     0.123380069
12.138               0.986687703     0.117535425
12.149               0.987501341     0.111719557
12.16                0.988273785      0.10593214
12.171               0.989005755     0.100172857
12.182               0.989697946    0.0944413912
12.193               0.990351036     0.088737434
12.204               0.990965684      0.08306068
12.215               0.991542531    0.0774108286
12.226               0.992082197    0.0717875837
12.237                0.99258529     0.066190654
12.248               0.993052397    0.0606197528
12.259               0.993484091    0.0550745977
12.27                0.993880931    0.0495549112
12.281               0.994243458      0.04406042
12.292                 0.9945722    0.0385908554
12.303               0.994867671    0.0331459532
12.314               0.995130372    0.0277254535
12.325               0.995360789    0.0223291008
12.336               0.995559397    0.0169566438
12.347               0.995726659    0.0116078357
12.358               0.995863024   0.00628243371
12.369               0.995968931  0.000980199271
12.38                0.996044807  -0.00429910202
12.391                0.99609107  -0.00955570049
12.402               0.996108125   -0.0147898225
12.413               0.996096369   -0.0200016903
12.424               0.996056187   -0.0251915224
12.435               0.995987957   -0.0303595333
12.446               0.995892045   -0.0355059338
12.457                0.99576881   -0.0406309308
12.468               0.995618601   -0.0457347277
12.479                0.99544176   -0.0508175239
12.49                 0.99523862   -0.0558795155
12.501               0.995009506    -0.060920895