! TOUCHSTONE file generated by CST MICROWAVE STUDIO
! Date and time: Mon Jan 20 16:13:07 2025
! Project name: unitcell.cst
! Parameters = {A=1.08237; AB_sqInv=0.853108; B=0.025494; C0=2.097; Cj=0.910478; Cp=0.075; Ct=0.978889; ImZ=-16.2587; L=10; L1=0.3; Lp=0.35; Lpad=0.75; M=1.199; R=5.41; ReZ=4.61532; Rt=4.61532; V=3; Vj=2.984; W=10; W1=-0.15; W2=-0.15; Wcoop=3.29; Wgap=1; Wline=1.42; Wpad=0.475; Wpadgap=0.35; Xpad1=1.6225; Xpad2=0.7975; Xpad3=1.6225; Xpad4=0.7975; Xvar_centre=1.21; f=0.01; f0=11; fmax=11.25; fmin=10.75; h=0.8; phi=0; th=0.035; theta=0}
! Header version: 2024
! Port assignment regex: !\s*Touchstone port\s*([0-9]+)\s*=\s*(CST MWS port|CST DES external port|CST DES block port)\s*(.+)\s* \(\"(.*)\"\)(\s*mode\s*([0-9]+))?.*
! Touchstone port assignment:
! Touchstone port 1 = CST MWS port Zmax ("") mode 1
! S-Parameters are not renormalized. Unphysical impedance of 0 will be written to the file.
# GHz S RI R 0
6                    0.172760668     0.964829782
6.011                0.176286338      0.96422884
6.022                 0.17981093      0.96361439
6.033                0.183334398     0.962986426
6.044                0.186856701     0.962344941
6.055                0.190377793      0.96168993
6.066                0.193897632     0.961021387
6.077                0.197416173     0.960339305
6.088                0.200933374      0.95964368
6.099                0.204449191     0.958934506
6.11                 0.207963579     0.958211775
6.121                0.211476497     0.957475484
6.132                  0.2149879     0.956725626
6.143                0.218497745     0.955962196
6.154                0.222005988     0.955185188
6.165                0.225512587     0.954394595
6.176                0.229017497     0.953590413
6.187                0.232520676     0.952772636
6.198                 0.23602208     0.951941258
6.209                0.239521666     0.951096274
6.22                 0.243019391     0.950237678
6.231                0.246515212     0.949365464
6.242                0.250009085     0.948479627
6.253                0.253500967     0.947580161
6.264                0.256990816      0.94666706
6.275                0.260478587     0.945740319
6.286                0.263964239     0.944799932
6.297                0.267447728     0.943845893
6.308                 0.27092901     0.942878198
6.319                0.274408044     0.941896839
6.33                 0.277884785     0.940901811
6.341                0.281359192     0.939893109
6.352                0.284831221     0.938870727
6.363                0.288300829     0.937834658
6.374                0.291767974     0.936784898
6.385                0.295232612     0.935721439
6.396                0.298694701     0.934644277
6.407                0.302154197     0.933553405
6.418                0.305611059     0.932448818
6.429                0.309065243     0.931330508
6.44                 0.312516707     0.930198471
6.451                0.315965407       0.9290527
6.462                0.319411302     0.927893188
6.473                0.322854348      0.92671993
6.484                0.326294503     0.925532919
6.495                0.329731724     0.924332148
6.506                0.333165968     0.923117612
6.517                0.336597193     0.921889304
6.528                0.340025356     0.920647216
6.539                0.343450415     0.919391344
6.55                 0.346872326     0.918121678
6.561                0.350291048     0.916838214
6.572                0.353706538     0.915540944
6.583                0.357118752      0.91422986
6.594                 0.36052765     0.912904957
6.605                0.363933187     0.911566226
6.616                0.367335321      0.91021366
6.627                0.370734011     0.908847252
6.638                0.374129212     0.907466994
6.649                0.377520884     0.906072879
6.66                 0.380908982       0.9046649
6.671                0.384293465     0.903243047
6.682                 0.38767429     0.901807313
6.693                0.391051415     0.900357691
6.704                0.394424797     0.898894171
6.715                0.397794392     0.897416745
6.726                 0.40116016     0.895925406
6.737                0.404522057     0.894420144
6.748                 0.40788004      0.89290095
6.759                0.411234067     0.891367816
6.77                 0.414584096     0.889820732
6.781                0.417930083     0.888259689
6.792                0.421271986     0.886684678
6.803                0.424609762      0.88509569
6.814                0.427943369     0.883492713
6.825                0.431272764      0.88187574
6.836                0.434597904     0.880244758
6.847                0.437918746     0.878599759
6.858                0.441235248     0.876940732
6.869                0.444547367     0.875267665
6.88                 0.447855059     0.873580549
6.891                0.451158282     0.871879371
6.902                0.454456993     0.870164121
6.913                 0.45775115     0.868434788
6.924                0.461040708     0.866691359
6.935                0.464325625     0.864933822
6.946                0.467605858     0.863162166
6.957                0.470881364     0.861376378
6.968                0.474152099     0.859576446
6.979                0.477418021     0.857762356
6.99                 0.480679085     0.855934095
7.001                0.483935249      0.85409165
7.012                0.487186469     0.852235008
7.023                0.490432702     0.850364154
7.034                0.493673903     0.848479074
7.045                0.496910031     0.846579754
7.056                 0.50014104     0.844666179
7.067                0.503366887     0.842738334
7.078                0.506587528     0.840796203
7.089                0.509802919     0.838839772
7.1                  0.513013017     0.836869024
7.111                0.516217776     0.834883942
7.122                0.519417154      0.83288451
7.133                0.522611105     0.830870712
7.144                0.525799585      0.82884253
7.155                 0.52898255     0.826799946
7.166                0.532159955     0.824742942
7.177                0.535331756     0.822671501
7.188                0.538497907     0.820585603
7.199                0.541658364      0.81848523
7.21                 0.544813081     0.816370361
7.221                0.547962014     0.814240977
7.232                0.551105117     0.812097059
7.243                0.554242345     0.809938584
7.254                0.557373651     0.807765533
7.265                0.560498991     0.805577884
7.276                0.563618319     0.803375615
7.287                0.566731588     0.801158703
7.298                0.569838752     0.798927127
7.309                0.572939765     0.796680862
7.32                  0.57603458     0.794419885
7.331                0.579123151     0.792144171
7.342                 0.58220543     0.789853697
7.353                0.585281372     0.787548438
7.364                0.588350927     0.785228366
7.375                 0.59141405     0.782893457
7.386                0.594470692     0.780543684
7.397                0.597520806     0.778179019
7.408                0.600564342     0.775799435
7.419                0.603601254     0.773404904
7.43                 0.606631493     0.770995397
7.441                0.609655009     0.768570884
7.452                0.612671754     0.766131335
7.463                0.615681678      0.76367672
7.474                0.618684732     0.761207008
7.485                0.621680867     0.758722167
7.496                0.624670031     0.756222164
7.507                0.627652175     0.753706967
7.518                0.630627249     0.751176541
7.529                0.633595201     0.748630853
7.54                 0.636555979     0.746069866
7.551                0.639509533     0.743493547
7.562                0.642455811     0.740901858
7.573                 0.64539476     0.738294761
7.584                0.648326327      0.73567222
7.595                0.651250461     0.733034195
7.606                0.654167108     0.730380647
7.617                0.657076213     0.727711536
7.628                0.659977723     0.725026821
7.639                0.662871584     0.722326461
7.65                 0.665757741     0.719610412
7.661                0.668636139     0.716878631
7.672                0.671506721     0.714131074
7.683                0.674369432     0.711367696
7.694                0.677224216     0.708588452
7.705                0.680071014     0.705793293
7.716                0.682909771     0.702982172
7.727                0.685740428     0.700155041
7.738                0.688562925      0.69731185
7.749                0.691377206     0.694452548
7.76                 0.694183209     0.691577083
7.771                0.696980875     0.688685404
7.782                0.699770143     0.685777456
7.793                0.702550952     0.682853184
7.804                 0.70532324     0.679912533
7.815                0.708086945     0.676955446
7.826                0.710842003     0.673981865
7.837                0.713588352     0.670991731
7.848                0.716325927     0.667984983
7.859                0.719054662     0.664961561
7.87                 0.721774492     0.661921401
7.881                 0.72448535      0.65886444
7.892                 0.72718717     0.655790613
7.903                0.729879884     0.652699854
7.914                0.732563422     0.649592094
7.925                0.735237716     0.646467266
7.936                0.737902694     0.643325298
7.947                0.740558286     0.640166119
7.958                 0.74320442     0.636989656
7.969                0.745841023     0.633795835
7.98                 0.748468021      0.63058458
7.991                0.751085339     0.627355813
8.002                0.753692902     0.624109456
8.013                0.756290632     0.620845429
8.024                0.758878453     0.617563648
8.035                0.761456284     0.614264032
8.046                0.764024047     0.610946494
8.057                 0.76658166     0.607610948
8.068                0.769129042     0.604257306
8.079                0.771666108     0.600885476
8.09                 0.774192774     0.597495368
8.101                0.776708956     0.594086888
8.112                0.779214564     0.590659939
8.123                0.781709512     0.587214424
8.134                 0.78419371     0.583750245
8.145                0.786667066       0.5802673
8.156                0.789129488     0.576765485
8.167                0.791580882     0.573244695
8.178                0.794021152     0.569704824
8.189                0.796450202      0.56614576
8.2                  0.798867933     0.562567394
8.211                0.801274245     0.558969611
8.222                0.803669036     0.555352295
8.233                0.806052201     0.551715328
8.244                0.808423637     0.548058589
8.255                0.810783234     0.544381956
8.266                0.813130885     0.540685302
8.277                0.815466478     0.536968501
8.288                0.817789899     0.533231421
8.299                0.820101035     0.529473931
8.31                 0.822399767     0.525695894
8.321                0.824685975     0.521897172
8.332                0.826959539     0.518077624
8.343                0.829220334     0.514237106
8.354                0.831468233     0.510375473
8.365                0.833703109     0.506492574
8.376                0.835924828     0.502588256
8.387                0.838133258     0.498662366
8.398                0.840328262     0.494714743
8.409                0.842509699     0.490745226
8.42                 0.844677429     0.486753651
8.431                0.846831305     0.482739849
8.442                0.848971179     0.478703648
8.453                  0.8510969     0.474644873
8.464                0.853208313     0.470563347
8.475                0.855305261     0.466458886
8.486                0.857387582     0.462331306
8.497                0.859455111     0.458180416
8.508                0.861507679     0.454006024
8.519                0.863545116     0.449807932
8.53                 0.865567244     0.445585939
8.541                0.867573883      0.44133984
8.552                 0.86956485     0.437069425
8.563                0.871539955     0.432774482
8.574                0.873499008     0.428454792
8.585                0.875441809     0.424110133
8.596                0.877368157     0.419740277
8.607                0.879277846     0.415344995
8.618                0.881170664     0.410924049
8.629                0.883046394     0.406477199
8.64                 0.884904814     0.402004199
8.651                0.886745697     0.397504797
8.662                 0.88856881     0.392978739
8.673                0.890373914     0.388425763
8.684                0.892160763     0.383845602
8.695                0.893929107     0.379237984
8.706                0.895678689     0.374602632
8.717                0.897409243     0.369939263
8.728                  0.8991205     0.365247587
8.739                 0.90081218      0.36052731
8.75                    0.902484     0.355778129
8.761                0.904135665     0.350999739
8.772                0.905766875     0.346191824
8.783                0.907377321     0.341354066
8.794                0.908966687     0.336486137
8.805                0.910534645     0.331587704
8.816                0.912080861     0.326658426
8.827                0.913604992     0.321697956
8.838                0.915106683     0.316705939
8.849                0.916585571     0.311682014
8.86                 0.918041282      0.30662581
8.871                0.919473431      0.30153695
8.882                0.920881622      0.29641505
8.893                 0.92226545     0.291259716
8.904                0.923624495     0.286070547
8.915                0.924958325     0.280847134
8.926                0.926266497     0.275589058
8.937                0.927548555     0.270295894
8.948                0.928804027     0.264967204
8.959                0.930032429     0.259602545
8.97                 0.931233261     0.254201463
8.981                0.932406009     0.248763495
8.992                0.933550143     0.243288168
9.003                0.934665115     0.237774998
9.014                0.935750361     0.232223495
9.025                0.936805301     0.226633154
9.036                0.937829335     0.221003463
9.047                0.938821844     0.215333898
9.058                 0.93978219     0.209623925
9.069                0.940709713     0.203872998
9.08                 0.941603733     0.198080562
9.091                0.942463549     0.192246047
9.102                0.943288435     0.186368876
9.113                0.944077642     0.180448456
9.124                0.944830396     0.174484185
9.135                0.945545897     0.168475447
9.146                0.946223318     0.162421616
9.157                0.946861806     0.156322052
9.168                0.947460477     0.150176101
9.179                0.948018417     0.143983099
9.19                 0.948534681     0.137742367
9.201                0.949008291     0.131453214
9.212                0.949438236     0.125114935
9.223                0.949823469     0.118726812
9.234                0.950162905     0.112288113
9.245                0.950455422     0.105798092
9.256                0.950699858    0.0992559902
9.267                0.950895008    0.0926610343
9.278                0.951039625     0.086012437
9.289                0.951132415    0.0793093973
9.3                  0.951172039       0.0725511
9.311                0.951157108    0.0657367159
9.322                 0.95108618    0.0588654017
9.333                0.950957762    0.0519363004
9.344                0.950770303    0.0449485411
9.355                0.950522195    0.0379012389
9.366                0.950211769    0.0307934959
9.377                0.949837293    0.0236244005
9.388                0.949396967    0.0163930284
9.399                0.948888923   0.00909844228
9.41                 0.948311222   0.00173969293
9.421                0.947661847  -0.00568418086
9.432                0.946938703   -0.0131741515
9.443                0.946139615   -0.0207312019
9.454                0.945262319    -0.028356325
9.465                0.944304461   -0.0360505225
9.476                0.943263596   -0.0438148046
9.487                0.942137177    -0.051650188
9.498                0.940922558   -0.0595576957
9.509                0.939616982   -0.0675383546
9.52                 0.938217581   -0.0755931949
9.531                0.936721371   -0.0837232478
9.542                0.935125244   -0.0919295441
9.553                0.933425961    -0.100213111
9.564                0.931620153    -0.108574972
9.575                0.929704307    -0.117016141
9.586                0.927674764    -0.125537623
9.597                 0.92552771    -0.134140408
9.608                 0.92325917    -0.142825469
9.619                0.920865001    -0.151593757
9.63                 0.918340883    -0.160446199
9.641                 0.91568231     -0.16938369
9.652                0.912884585    -0.178407089
9.663                0.909942807    -0.187517217
9.674                0.906851863    -0.196714843
9.685                0.903606419    -0.206000685
9.696                 0.90020091    -0.215375396
9.707                0.896629528    -0.224839559
9.718                0.892886211    -0.234393679
9.729                0.888964635    -0.244038168
9.74                 0.884858194    -0.253773339
9.751                0.880559999    -0.263599392
9.762                0.876062854    -0.273516399
9.773                 0.87135925    -0.283524292
9.784                0.866441348    -0.293622846
9.795                0.861300967    -0.303811662
9.806                0.855929568    -0.314090146
9.817                 0.85031824    -0.324457492
9.828                0.844457682    -0.334912655
9.839                0.838338193    -0.345454331
9.85                 0.831949653    -0.356080923
9.861                0.825281506     -0.36679052
9.872                0.818322747    -0.377580858
9.883                0.811061907    -0.388449286
9.894                0.803487034    -0.399392732
9.905                0.795585682    -0.410407656
9.916                0.787344893    -0.421490008
9.927                0.778751187    -0.432635177
9.938                0.769790548    -0.443837939
9.949                0.760448414    -0.455092397
9.96                 0.750709666    -0.466391921
9.971                0.740558623    -0.477729075
9.982                0.729979038     -0.48909555
9.993                0.718954096    -0.500482079
10.004               0.707466418    -0.511878353
10.015               0.695498067    -0.523272928
10.026               0.683030565    -0.534653127
10.037               0.670044909    -0.546004932
10.048                 0.6565216    -0.557312872
10.059               0.642440679    -0.568559898
10.07                0.627781772    -0.579727257
10.081               0.612524148    -0.590794354
10.092               0.596646793    -0.601738605
10.103               0.580128491    -0.612535286
10.114               0.562947928    -0.623157376
10.125               0.545083821    -0.633575386
10.136               0.526515054    -0.643757192
10.147               0.507220852    -0.653667857
10.158               0.487180974    -0.663269457
10.169               0.466375944    -0.672520897
10.18                0.444787306    -0.681377739
10.191               0.422397919    -0.689792033
10.202               0.399192297    -0.697712154
10.213               0.375156982    -0.705082656
10.224               0.350280965     -0.71184415
10.235               0.324556161    -0.717933202
10.246               0.297977922    -0.723282274
10.257               0.270545609      -0.7278197
10.268               0.242263209    -0.731469724
10.279               0.213140007    -0.734152599
10.29                0.183191291    -0.735784763
10.301               0.152439116    -0.736279105
10.312               0.120913082    -0.735545342
10.323              0.0886511496    -0.733490501
10.334               0.055700453     -0.73001955
10.345              0.0221181121    -0.725036164
10.356             -0.0120279911    -0.718443648
10.367               -0.04665849    -0.710146039
10.378             -0.0816818978     -0.70004937
10.389              -0.116994091    -0.688063113
10.4                -0.152477953    -0.674101799
10.411               -0.18800321     -0.65808679
10.422              -0.223426511    -0.639948192
10.433              -0.258591783    -0.619626882
10.444              -0.293330907    -0.597076601
10.455              -0.327464745    -0.572266067
10.466              -0.360804542    -0.545181043
10.477              -0.393153724    -0.515826302
10.488              -0.424310078    -0.484227387
10.499              -0.454068325    -0.450432109
10.51               -0.482223017    -0.414511684
10.521              -0.508571735    -0.376561433
10.532              -0.532918492    -0.336700974
10.543              -0.555077259     -0.29507385
10.554              -0.574875505    -0.251846556
10.565              -0.592157629    -0.207206945
10.576              -0.606788158    -0.161362034
10.587              -0.618654599    -0.114535248
10.598              -0.627669817   -0.0669631648
10.609              -0.633773858   -0.0188918698
10.62                -0.63693512    0.0294269807
10.631              -0.637150859    0.0777402422
10.642              -0.634446976      0.12579738
10.653              -0.628877124     0.173354443
10.664              -0.620521185      0.22017778
10.675              -0.609483162     0.266047393
10.686              -0.595888609     0.310759818
10.697              -0.579881695     0.354130489
10.708              -0.561622016     0.395995522
10.719              -0.541281279     0.436212912
10.73               -0.519039975     0.474663169
10.741              -0.495084128       0.5112494
10.752               -0.46960223     0.545896911
10.763              -0.442782408     0.578552385
10.774              -0.414809902     0.609182703
10.785              -0.385864866     0.637773492
10.796              -0.356120521     0.664327477
10.807              -0.325741659     0.688862691
10.818              -0.294883492     0.711410634
10.829              -0.263690818     0.732014414
10.84               -0.232297487     0.750726929
10.851              -0.200826122     0.767609128
10.862               -0.16938807     0.782728372
10.873               -0.13808355     0.796156931
10.884              -0.107001946     0.807970608
10.895             -0.0762222387     0.818247519
10.9               -0.0623503002     0.822432262
10.906             -0.0458135176     0.827067014
10.917             -0.0158355699     0.834508742
10.928              0.0136604905     0.840651856
10.939              0.0426315696     0.845574345
10.95               0.0710419321     0.849352488
10.961              0.0988625466     0.852060405
10.972               0.126070447      0.85376972
10.983                0.15264812     0.854549297
10.994               0.178582919     0.854465055
11.005               0.203866521     0.853579843
11.016                0.22849441     0.851953377
11.027               0.252465409      0.84964221
11.038               0.275781239     0.846699755
11.049                0.29844613     0.843176321
11.06                0.320466455      0.83911919
11.071               0.341850411     0.834572702
11.082                0.36260772     0.829578359
11.093               0.382749376     0.824174938
11.104               0.402287405     0.818398612
11.115               0.421234668     0.812283075
11.126               0.439604674      0.80585967
11.137               0.457411425     0.799157515
11.148               0.474669272     0.792203631
11.159               0.491392802     0.785023065
11.17                0.507596726      0.77763901
11.181               0.523295794     0.770072923
11.192               0.538504718     0.762344634
11.203               0.553238105     0.754472459
11.214               0.567510404     0.746473293
11.225               0.581335856     0.738362715
11.236               0.594728464     0.730155077
11.247               0.607701953     0.721863588
11.258               0.620269754     0.713500396
11.269               0.632444976     0.705076668
11.28                0.644240397     0.696602656
11.291               0.655668454     0.688087768
11.302               0.666741229     0.679540628
11.313                0.67747045     0.670969135
11.324                0.68786749     0.662380519
11.335               0.697943363     0.653781388
11.346               0.707708729     0.645177778
11.357               0.717173895     0.636575194
11.368               0.726348825     0.627978655
11.379               0.735243139     0.619392724
11.39                0.743866125     0.610821551
11.401               0.752226745     0.602268901
11.412               0.760333643     0.593738184
11.423               0.768195151     0.585232483
11.434                 0.7758193      0.57675458
11.445               0.783213831     0.568306981
11.456               0.790386199     0.559891934
11.467               0.797343585     0.551511455
11.478               0.804092904     0.543167339
11.489               0.810640816     0.534861187
11.5                 0.816993731     0.526594413
11.511               0.823157822     0.518368265
11.522               0.829139031     0.510183835
11.533               0.834943077     0.502042072
11.544               0.840575466     0.493943798
11.555               0.846041498     0.485889712
11.566               0.851346276     0.477880406
11.577                0.85649471     0.469916368
11.588               0.861491529     0.461997997
11.599               0.866341286     0.454125608
11.61                0.871048363     0.446299436
11.621               0.875616981     0.438519649
11.632               0.880051204     0.430786348
11.643               0.884354947     0.423099579
11.654               0.888531978     0.415459331
11.665               0.892585932     0.407865546
11.676               0.896520305     0.400318123
11.687               0.900338469      0.39281692
11.698               0.904043674     0.385361759
11.709               0.907639049      0.37795243
11.72                0.911127614     0.370588694
11.731               0.914512277     0.363270283
11.742               0.917795845     0.355996909
11.753               0.920981022     0.348768261
11.764               0.924070418     0.341584008
11.775               0.927066551     0.334443804
11.786               0.929971848     0.327347288
11.797               0.932788654     0.320294087
11.808                0.93551923     0.313283814
11.819               0.938165759     0.306316074
11.83                0.940730351     0.299390465
11.841               0.943215039     0.292506575
11.852               0.945621789     0.285663989
11.863               0.947952501     0.278862285
11.874                0.95020901     0.272101038
11.885               0.952393087      0.26537982
11.896               0.954506446     0.258698203
11.907               0.956550743     0.252055754
11.918                0.95852758     0.245452043
11.929               0.960438503     0.238886636
11.94                0.962285012     0.232359105
11.951               0.964068554     0.225869018
11.962                0.96579053     0.219415947
11.973               0.967452297     0.212999467
11.984               0.969055167     0.206619154
11.995                0.97060041     0.200274587
12.006               0.972089257     0.193965348
12.017               0.973522898     0.187691022
12.028               0.974902487       0.1814512
12.039               0.976229142     0.175245475
12.05                0.977503945     0.169073443
12.061               0.978727946     0.162934706
12.072               0.979902161     0.156828872
12.083               0.981027576     0.150755549
12.094               0.982105147     0.144714354
12.105                 0.9831358     0.138704906
12.116               0.984120435     0.132726831
12.127               0.985059923     0.126779759
12.138                0.98595511     0.120863325
12.149               0.986806818     0.114977168
12.16                0.987615843     0.109120934
12.171               0.988382959     0.103294274
12.182               0.989108916    0.0974968424
12.193               0.989794444    0.0917283004
12.204               0.990440251    0.0859883137
12.215               0.991047025    0.0802765533
12.226               0.991615435    0.0745926953
12.237               0.992146129    0.0689364211
12.248                0.99263974     0.063307417
12.259                0.99309688    0.0577053745
12.27                0.993518147    0.0521299902
12.281                0.99390412    0.0465809655
12.292               0.994255364     0.041058007
12.303               0.994572426    0.0355608262
12.314               0.994855842    0.0300891394
12.325               0.995106131    0.0246426679
12.336               0.995323797    0.0192211376
12.347               0.995509333    0.0138242793
12.358               0.995663218   0.00845182833
12.369               0.995785919   0.00310352488
12.38                0.995877888  -0.00222088645
12.391               0.995939569   -0.0075216565
12.402               0.995971393   -0.0127990316
12.413               0.995973778   -0.0180532538
12.424               0.995947135   -0.0232845606
12.435               0.995891862   -0.0284931855
12.446               0.995808347   -0.0336793574
12.457               0.995696969   -0.0388433014
12.468               0.995558097   -0.0439852383
12.479               0.995392092   -0.0491053849
12.49                0.995199305    -0.054203954
12.501               0.994980078   -0.0592811546