! TOUCHSTONE file generated by CST MICROWAVE STUDIO
! Date and time: Mon Jan 20 16:13:08 2025
! Project name: unitcell.cst
! Parameters = {A=1.09914; AB_sqInv=0.827291; B=0.025494; C0=2.097; Cj=0.756487; Cp=0.075; Ct=0.827001; ImZ=-19.2448; L=10; L1=0.3; Lp=0.35; Lpad=0.75; M=1.199; R=5.41; ReZ=4.47565; Rt=4.47565; V=4; Vj=2.984; W=10; W1=-0.15; W2=-0.15; Wcoop=3.29; Wgap=1; Wline=1.42; Wpad=0.475; Wpadgap=0.35; Xpad1=1.6225; Xpad2=0.7975; Xpad3=1.6225; Xpad4=0.7975; Xvar_centre=1.21; f=0.01; f0=11; fmax=11.25; fmin=10.75; h=0.8; phi=0; th=0.035; theta=0}
! Header version: 2024
! Port assignment regex: !\s*Touchstone port\s*([0-9]+)\s*=\s*(CST MWS port|CST DES external port|CST DES block port)\s*(.+)\s* \(\"(.*)\"\)(\s*mode\s*([0-9]+))?.*
! Touchstone port assignment:
! Touchstone port 1 = CST MWS port Zmax ("") mode 1
! S-Parameters are not renormalized. Unphysical impedance of 0 will be written to the file.
# GHz S RI R 0
6                    0.149101009      0.96448351
6.011                 0.15271167     0.963989423
6.022                0.156321125       0.9634811
6.033                0.159929325     0.962958538
6.044                0.163536222     0.962421739
6.055                 0.16714177     0.961870702
6.066                0.170745922     0.961305426
6.077                0.174348629     0.960725912
6.088                0.177949845     0.960132158
6.099                0.181549523     0.959524166
6.11                 0.185147615     0.958901934
6.121                0.188744076     0.958265463
6.132                0.192338857     0.957614752
6.143                0.195931913     0.956949802
6.154                0.199523197     0.956270613
6.165                0.203112662     0.955577184
6.176                0.206700262     0.954869515
6.187                 0.21028595     0.954147608
6.198                 0.21386968     0.953411461
6.209                0.217451406     0.952661075
6.22                 0.221031081     0.951896451
6.231                 0.22460866     0.951117587
6.242                0.228184096     0.950324485
6.253                0.231757344     0.949517144
6.264                0.235328358     0.948695566
6.275                0.238897091     0.947859749
6.286                0.242463498     0.947009694
6.297                0.246027534     0.946145401
6.308                0.249589153      0.94526687
6.319                 0.25314831     0.944374103
6.33                 0.256704958     0.943467097
6.341                0.260259053     0.942545855
6.352                 0.26381055     0.941610375
6.363                0.267359403     0.940660659
6.374                0.270905567     0.939696705
6.385                0.274448997     0.938718515
6.396                0.277989648     0.937726088
6.407                0.281527475     0.936719423
6.418                0.285062434     0.935698522
6.429                0.288594479     0.934663384
6.44                 0.292123566     0.933614009
6.451                0.295649651     0.932550396
6.462                0.299172687     0.931472545
6.473                0.302692633     0.930380457
6.484                0.306209441     0.929274131
6.495                0.309723069     0.928153566
6.506                0.313233472     0.927018762
6.517                0.316740606     0.925869718
6.528                0.320244426     0.924706435
6.539                0.323744889     0.923528911
6.55                 0.327241949     0.922337145
6.561                0.330735564     0.921131137
6.572                 0.33422569     0.919910887
6.583                0.337712281     0.918676392
6.594                0.341195295     0.917427652
6.605                0.344674688     0.916164666
6.616                0.348150416     0.914887433
6.627                0.351622435     0.913595952
6.638                0.355090701      0.91229022
6.649                0.358555172     0.910970236
6.66                 0.362015802        0.909636
6.671                 0.36547255     0.908287509
6.682                0.368925371     0.906924761
6.693                0.372374222     0.905547754
6.704                 0.37581906     0.904156487
6.715                 0.37925984     0.902750957
6.726                0.382696521     0.901331161
6.737                0.386129058     0.899897098
6.748                0.389557409     0.898448764
6.759                 0.39298153     0.896986158
6.77                 0.396401377     0.895509275
6.781                0.399816909     0.894018113
6.792                0.403228081      0.89251267
6.803                0.406634851      0.89099294
6.814                0.410037176     0.889458922
6.825                0.413435012     0.887910611
6.836                0.416828317     0.886348004
6.847                0.420217047     0.884771095
6.858                0.423601159     0.883179882
6.869                0.426980612      0.88157436
6.88                  0.43035536     0.879954524
6.891                0.433725363      0.87832037
6.902                0.437090576     0.876671892
6.913                0.440450957     0.875009085
6.924                0.443806462     0.873331944
6.935                 0.44715705     0.871640464
6.946                0.450502677     0.869934638
6.957                0.453843299     0.868214461
6.968                0.457178875     0.866479926
6.979                0.460509361     0.864731027
6.99                 0.463834714     0.862967756
7.001                0.467154892     0.861190108
7.012                0.470469851     0.859398074
7.023                0.473779548     0.857591648
7.034                0.477083941     0.855770822
7.045                0.480382985     0.853935587
7.056                0.483676639     0.852085935
7.067                 0.48696486     0.850221858
7.078                0.490247603     0.848343347
7.089                0.493524826     0.846450393
7.1                  0.496796485     0.844542986
7.111                0.500062538     0.842621117
7.122                0.503322941     0.840684775
7.133                0.506577651     0.838733951
7.144                0.509826624     0.836768633
7.155                0.513069817     0.834788811
7.166                0.516307187     0.832794473
7.177                0.519538689     0.830785607
7.188                0.522764281     0.828762203
7.199                0.525983918     0.826724246
7.21                 0.529197557     0.824671725
7.221                0.532405154     0.822604627
7.232                0.535606664     0.820522938
7.243                0.538802045     0.818426643
7.254                0.541991252      0.81631573
7.265                 0.54517424     0.814190183
7.276                0.548350966     0.812049987
7.287                0.551521384     0.809895127
7.298                0.554685451     0.807725587
7.309                0.557843121      0.80554135
7.32                 0.560994351     0.803342401
7.331                0.564139095     0.801128721
7.342                0.567277308     0.798900293
7.353                0.570408944       0.7966571
7.364                 0.57353396     0.794399121
7.375                0.576652309      0.79212634
7.386                0.579763945     0.789838735
7.397                0.582868824     0.787536287
7.408                0.585966899     0.785218975
7.419                0.589058123     0.782886778
7.43                 0.592142452     0.780539676
7.441                0.595219838     0.778177645
7.452                0.598290234     0.775800662
7.463                0.601353595     0.773408706
7.474                0.604409873     0.771001752
7.485                 0.60745902     0.768579775
7.496                 0.61050099     0.766142751
7.507                0.613535735     0.763690654
7.518                0.616563207     0.761223458
7.529                0.619583358     0.758741136
7.54                 0.622596139     0.756243661
7.551                0.625601502     0.753731005
7.562                0.628599398     0.751203139
7.573                0.631589778     0.748660034
7.584                0.634572592     0.746101659
7.595                0.637547792     0.743527985
7.606                0.640515326     0.740938978
7.617                0.643475145     0.738334609
7.628                0.646427198     0.735714842
7.639                0.649371434     0.733079646
7.65                 0.652307802     0.730428985
7.661                 0.65523625     0.727762824
7.672                0.658156726     0.725081128
7.683                0.661069179     0.722383859
7.694                0.663973555      0.71967098
7.705                0.666869801     0.716942453
7.716                0.669757864     0.714198238
7.727                 0.67263769     0.711438295
7.738                0.675509225     0.708662584
7.749                0.678372414     0.705871061
7.76                 0.681227202     0.703063686
7.771                0.684073533     0.700240413
7.782                 0.68691135     0.697401198
7.793                0.689740599     0.694545996
7.804                0.692561221      0.69167476
7.815                0.695373159     0.688787442
7.826                0.698176354     0.685883993
7.837                0.700970749     0.682964365
7.848                0.703756283     0.680028506
7.859                0.706532898     0.677076364
7.87                 0.709300532     0.674107887
7.881                0.712059125      0.67112302
7.892                0.714808615     0.668121708
7.903                 0.71754894     0.665103896
7.914                0.720280037     0.662069525
7.925                0.723001841     0.659018537
7.936                 0.72571429     0.655950871
7.947                0.728417318     0.652866468
7.958                0.731110859     0.649765263
7.969                0.733794847     0.646647194
7.98                 0.736469214     0.643512195
7.991                0.739133892       0.6403602
8.002                0.741788812     0.637191142
8.013                0.744433905      0.63400495
8.024                  0.7470691     0.630801554
8.035                0.749694325     0.627580883
8.046                0.752309507     0.624342862
8.057                0.754914575     0.621087416
8.068                0.757509452     0.617814469
8.079                0.760094063     0.614523943
8.09                 0.762668333     0.611215758
8.101                0.765232183     0.607889832
8.112                0.767785535     0.604546082
8.123                0.770328309     0.601184424
8.134                0.772860425     0.597804771
8.145                0.775381799     0.594407034
8.156                 0.77789235     0.590991123
8.167                0.780391992     0.587556947
8.178                 0.78288064     0.584104412
8.189                0.785358206     0.580633421
8.2                  0.787824601     0.577143878
8.211                0.790279737     0.573635682
8.222                0.792723521     0.570108732
8.233                0.795155861     0.566562925
8.244                0.797576661     0.562998153
8.255                0.799985827      0.55941431
8.266                 0.80238326     0.555811284
8.277                0.804768862     0.552188964
8.288                0.807142531     0.548547235
8.299                0.809504164     0.544885979
8.31                 0.811853657     0.541205078
8.321                0.814190903     0.537504409
8.332                0.816515795     0.533783848
8.343                0.818828221     0.530043268
8.354                0.821128069     0.526282539
8.365                0.823415224      0.52250153
8.376                0.825689571     0.518700105
8.387                0.827950989     0.514878128
8.398                0.830199359     0.511035458
8.409                0.832434555     0.507171951
8.42                 0.834656453     0.503287461
8.431                0.836864923     0.499381841
8.442                0.839059835     0.495454936
8.453                0.841241054     0.491506592
8.464                0.843408445     0.487536651
8.475                0.845561867     0.483544952
8.486                 0.84770118     0.479531328
8.497                0.849826236     0.475495612
8.508                0.851936888     0.471437632
8.519                0.854032985     0.467357213
8.53                 0.856114371     0.463254176
8.541                0.858180889     0.459128338
8.552                0.860232376     0.454979514
8.563                0.862268667     0.450807512
8.574                0.864289594      0.44661214
8.585                0.866294983     0.442393198
8.596                0.868284657     0.438150486
8.607                0.870258436     0.433883796
8.618                0.872216134     0.429592919
8.629                0.874157562     0.425277639
8.64                 0.876082526     0.420937737
8.651                0.877990828     0.416572989
8.662                0.879882263     0.412183167
8.673                0.881756624     0.407768038
8.684                0.883613698     0.403327364
8.695                0.885453264     0.398860902
8.706                0.887275101     0.394368403
8.717                0.889078977     0.389849615
8.728                0.890864657     0.385304279
8.739                  0.8926319     0.380732131
8.75                 0.894380458     0.376132903
8.761                0.896110077     0.371506318
8.772                0.897820497     0.366852097
8.783                0.899511449     0.362169953
8.794                0.901182659     0.357459593
8.805                0.902833846     0.352720719
8.816                0.904464719     0.347953026
8.827                0.906074982     0.343156202
8.838                 0.90766433      0.33832993
8.849                0.909232447     0.333473884
8.86                 0.910779013     0.328587735
8.871                0.912303696     0.323671142
8.882                0.913806155     0.318723762
8.893                 0.91528604      0.31374524
8.904                0.916742992     0.308735218
8.915                0.918176638     0.303693327
8.926                0.919586599     0.298619191
8.937                0.920972483     0.293512428
8.948                0.922333886     0.288372645
8.959                0.923670392     0.283199443
8.97                 0.924981574     0.277992414
8.981                0.926266991     0.272751141
8.992                 0.92752619     0.267475199
9.003                0.928758704     0.262164151
9.014                0.929964051     0.256817556
9.025                0.931141735     0.251434959
9.036                0.932291245     0.246015899
9.047                0.933412053     0.240559901
9.058                0.934503616     0.235066486
9.069                0.935565373     0.229535159
9.08                 0.936596745     0.223965418
9.091                0.937597135     0.218356749
9.102                0.938565929     0.212708629
9.113                0.939502489     0.207020523
9.124                 0.94040616     0.201291884
9.135                0.941276264     0.195522154
9.146                  0.9421121     0.189710766
9.157                0.942912947     0.183857137
9.168                0.943678055     0.177960675
9.179                0.944406654     0.172020775
9.19                 0.945097946      0.16603682
9.201                0.945751104      0.16000818
9.212                0.946365276     0.153934211
9.223                0.946939579     0.147814259
9.234                0.947473101     0.141647655
9.245                0.947964896     0.135433716
9.256                0.948413986     0.129171746
9.267                0.948819361     0.122861037
9.278                0.949179971     0.116500866
9.289                0.949494733     0.110090494
9.3                   0.94976252     0.103629171
9.311                0.949982171    0.0971161319
9.322                0.950152476    0.0905505963
9.333                0.950272187    0.0839317702
9.344                0.950340006     0.077258845
9.355                0.950354589    0.0705309974
9.366                0.950314542    0.0637473897
9.377                0.950218418    0.0569071697
9.388                0.950064716    0.0500094707
9.399                 0.94985188    0.0430534115
9.41                 0.949578292    0.0360380967
9.421                0.949242275    0.0289626168
9.432                0.948842085    0.0218260483
9.443                0.948375912    0.0146274542
9.454                0.947841876   0.00736588393
9.465                0.947238021  4.03742125e-05
9.476                0.946562318  -0.00735005082
9.487                0.945812654    -0.014806379
9.498                0.944986833   -0.0223296093
9.509                0.944082573   -0.0299207517
9.52                 0.943097498   -0.0375808254
9.531                0.942029137   -0.0453108589
9.542                0.940874918   -0.0531118883
9.553                0.939632165   -0.0609849561
9.564                 0.93829809   -0.0689311102
9.575                0.936869792   -0.0769514021
9.586                0.935344248   -0.0850468852
9.597                0.933718311   -0.0932186131
9.608                0.931988699    -0.101467637
9.619                0.930151994    -0.109795004
9.63                 0.928204633    -0.118201753
9.641                0.926142902    -0.126688914
9.652                0.923962928    -0.135257504
9.663                 0.92166067    -0.143908522
9.674                0.919231916    -0.152642945
9.685                0.916672271    -0.161461728
9.696                0.913977149    -0.170365791
9.707                0.911141764    -0.179356023
9.718                0.908161121    -0.188433269
9.729                0.905030007    -0.197598326
9.74                 0.901742978    -0.206851935
9.751                0.898294351    -0.216194776
9.762                0.894678192    -0.225627455
9.773                0.890888304    -0.235150497
9.784                0.886918214    -0.244764334
9.795                0.882761163    -0.254469298
9.806                 0.87841009      -0.2642656
9.817                0.873857619    -0.274153323
9.828                0.869096047    -0.284132405
9.839                0.864117327    -0.294202622
9.85                 0.858913054    -0.304363568
9.861                0.853474449    -0.314614639
9.872                0.847792345    -0.324955005
9.883                0.841857167    -0.335383593
9.894                 0.83565892    -0.345899057
9.905                 0.82918717    -0.356499746
9.916                0.822431026    -0.367183682
9.927                0.815379127    -0.377948515
9.938                0.808019621    -0.388791493
9.949                 0.80034015     -0.39970942
9.96                 0.792327837    -0.410698607
9.971                0.783969264    -0.421754829
9.982                0.775250464    -0.432873272
9.993                0.766156906     -0.44404847
10.004               0.756673478     -0.45527425
10.015               0.746784487    -0.466543658
10.026               0.736473643    -0.477848891
10.037               0.725724059    -0.489181214
10.048               0.714518247    -0.500530874
10.059               0.702838128    -0.511887009
10.07                0.690665033    -0.523237549
10.081               0.677979722    -0.534569104
10.092               0.664762405    -0.545866851
10.103               0.650992775    -0.557114411
10.114               0.636650043    -0.568293716
10.125               0.621712993    -0.579384867
10.136               0.606160045    -0.590365985
10.147               0.589969336    -0.601213055
10.158               0.573118814    -0.611899757
10.169               0.555586354    -0.622397293
10.18                0.537349898    -0.632674209
10.191               0.518387613    -0.642696206
10.202               0.498678084    -0.652425949
10.213               0.478200533    -0.661822875
10.224               0.456935077    -0.670843002
10.235               0.434863013    -0.679438737
10.246               0.411967159      -0.6875587
10.257               0.388232228    -0.695147547
10.268               0.363645251    -0.702145827
10.279               0.338196058    -0.708489851
10.29                0.311877807      -0.7141116
10.301               0.284687561    -0.718938678
10.312                0.25662694    -0.722894307
10.323               0.227702802    -0.725897399
10.334               0.197928005      -0.7278627
10.345                0.16732219    -0.728701023
10.356               0.135912629    -0.728319593
10.367               0.103735087    -0.726622517
10.378              0.0708347136    -0.723511386
10.389              0.0372669242    -0.718886038
10.4               0.00309826857    -0.712645488
10.411             -0.0315927559    -0.704689041
10.422             -0.0667149695    -0.694917597
10.433              -0.102163894    -0.683235145
10.444              -0.137821292    -0.669550456
10.455              -0.173554913     -0.65377896
10.466              -0.209218486     -0.63584478
10.477              -0.244652006    -0.615682906
10.488              -0.279682365    -0.593241463
10.499              -0.314124364    -0.568484011
10.51                -0.34778213    -0.541391831
10.521               -0.38045098    -0.511966089
10.532              -0.411919707    -0.480229827
10.543              -0.441973305    -0.446229656
10.554              -0.470396076    -0.410037079
10.565              -0.496975073    -0.371749338
10.576              -0.521503793    -0.331489706
10.587              -0.543786024     -0.28940716
10.598              -0.563639718    -0.245675384
10.609              -0.580900763    -0.200491085
10.62               -0.595426499    -0.154071628
10.631              -0.607098862    -0.106652046
10.642              -0.615826999   -0.0584814925
10.653              -0.621549265  -0.00981923922
10.664                -0.6242345     0.039069632
10.675              -0.623882541    0.0879187109
10.686              -0.620523957     0.136464747
10.697              -0.614219007     0.184451989
10.708              -0.605055897     0.231636228
10.719              -0.593148407     0.277788417
10.73                  -0.578633     0.322697762
10.741              -0.561665546     0.366174208
10.752              -0.542417786     0.408050284
10.763              -0.521073675      0.44818229
10.774              -0.497825735      0.48645085
10.785              -0.472871526     0.522760871
10.796              -0.446410333     0.557040966
10.807              -0.418640151     0.589242427
10.818              -0.389755011      0.61933783
10.829              -0.359942694      0.64731935
10.84               -0.329382834      0.67319688
10.851              -0.298245415     0.696996038
10.862              -0.266689652     0.718756116
10.873              -0.234863209     0.738528046
10.884              -0.202901747     0.756372436
10.895              -0.170928738     0.772357693
10.9                -0.156422291     0.779029091
10.906              -0.139055522     0.786558292
10.917              -0.107381558     0.799053184
10.928              -0.075994835     0.809924374
10.939             -0.0449724029     0.819255658
10.95              -0.0143809892     0.827131525
10.961              0.0157223193     0.833636222
10.972              0.0452893624     0.838852964
10.983              0.0742801761     0.842863281
10.994               0.102662265     0.845746493
11.005               0.130409891     0.847579303
11.016               0.157503382     0.848435478
11.027               0.183928483     0.848385628
11.038               0.209675736     0.847497053
11.049               0.234739906     0.845833656
11.06                 0.25911945     0.843455914
11.071               0.282816031      0.84042088
11.082               0.305834068     0.836782237
11.093               0.328180336     0.832590368
11.104               0.349863605     0.827892455
11.115               0.370894307     0.822732591
11.126               0.391284253     0.817151906
11.137               0.411046372     0.811188703
11.148               0.430194483     0.804878595
11.159               0.448743097     0.798254646
11.17                 0.46670724     0.791347514
11.181               0.484102302     0.784185593
11.192               0.500943905     0.776795146
11.203                0.51724779     0.769200441
11.214               0.533029718     0.761423881
11.225               0.548305389     0.753486123
11.236               0.563090373     0.745406203
11.247               0.577400047     0.737201642
11.258               0.591249553     0.728888554
11.269               0.604653752     0.720481748
11.28                0.617627196     0.711994821
11.291               0.630184103     0.703440245
11.302               0.642338332     0.694829454
11.313               0.654103375     0.686172917
11.324               0.665492343     0.677480214
11.335               0.676517959     0.668760101
11.346               0.687192558     0.660020577
11.357               0.697528081     0.651268935
11.368               0.707536081     0.642511825
11.379               0.717227723     0.633755297
11.39                0.726613792     0.625004852
11.401               0.735704697     0.616265486
11.412                0.74451048     0.607541723
11.423                0.75304082     0.598837663
11.434               0.761305047     0.590157006
11.445                0.76931215     0.581503089
11.456               0.777070782     0.572878915
11.467               0.784589277     0.564287179
11.478               0.791875654     0.555730293
11.489               0.798937632     0.547210408
11.5                 0.805782634     0.538729438
11.511               0.812417805     0.530289077
11.522               0.818850014     0.521890818
11.533               0.825085871      0.51353597
11.544                0.83113173     0.505225674
11.555               0.836993703     0.496960913
11.566               0.842677668     0.488742532
11.577               0.848189277     0.480571243
11.588               0.853533967     0.472447643
11.599               0.858716965     0.464372216
11.61                0.863743299     0.456345351
11.621               0.868617806     0.448367345
11.632               0.873345137     0.440438411
11.643               0.877929767      0.43255869
11.654               0.882376001     0.424728253
11.665               0.886687983     0.416947108
11.676               0.890869697      0.40921521
11.687               0.894924981     0.401532459
11.698               0.898857526     0.393898711
11.709               0.902670888     0.386313781
11.72                0.906368487     0.378777445
11.731                0.90995362     0.371289445
11.742                0.91342946     0.363849495
11.753               0.916799064     0.356457278
11.764               0.920065375     0.349112457
11.775               0.923231232     0.341814671
11.786               0.926299369      0.33456354
11.797                0.92927242     0.327358669
11.808               0.932152926     0.320199648
11.819               0.934943337     0.313086052
11.83                0.937646014     0.306017448
11.841               0.940263235     0.298993392
11.852               0.942797199     0.292013433
11.863               0.945250024     0.285077114
11.874               0.947623757      0.27818397
11.885               0.949920374     0.271333537
11.896                0.95214178     0.264525342
11.907               0.954289817     0.257758914
11.918               0.956366262      0.25103378
11.929               0.958372832     0.244349465
11.94                0.960311186     0.237705497
11.951               0.962182927     0.231101401
11.962               0.963989604     0.224536707
11.973               0.965732715     0.218010946
11.984               0.967413706     0.211523651
11.995               0.969033978     0.205074357
12.006               0.970594886     0.198662605
12.017               0.972097737     0.192287937
12.028                 0.9735438     0.185949901
12.039               0.974934301     0.179648047
12.05                0.976270426     0.173381933
12.061               0.977553325     0.167151117
12.072                0.97878411     0.160955167
12.083               0.979963857     0.154793651
12.094               0.981093612     0.148666147
12.105               0.982174383     0.142572235
12.116               0.983207152     0.136511502
12.127               0.984192867      0.13048354
12.138               0.985132447     0.124487947
12.149               0.986026786     0.118524327
12.16                0.986876748     0.112592287
12.171               0.987683171     0.106691445
12.182                0.98844687     0.100821419
12.193               0.989168633    0.0949818377
12.204               0.989849228    0.0891723322
12.215               0.990489396     0.083392541
12.226                0.99108986     0.077642108
12.237               0.991651321    0.0719206829
12.248               0.992174457     0.066227921
12.259               0.992659931    0.0605634836
12.27                0.993108384    0.0549270375
12.281               0.993520439    0.0493182549
12.292               0.993896702     0.043736814
12.303               0.994237761    0.0381823983
12.314               0.994544191    0.0326546968
12.325               0.994816545    0.0271534039
12.336               0.995055366    0.0216782194
12.347                0.99526118    0.0162288485
12.358               0.995434499    0.0108050015
12.369                0.99557582   0.00540639393
12.38                0.995685628  3.27464373e-05
12.391               0.995764394  -0.00531621527
12.402               0.995812578   -0.0106407605
12.413               0.995830626   -0.0159411537
12.424               0.995818973   -0.0212176544
12.435               0.995778042   -0.0264705174
12.446               0.995708247   -0.0316999928
12.457               0.995609989   -0.0369063261
12.468                0.99548366   -0.0420897581
12.479               0.995329641   -0.0472505252
12.49                0.995148305   -0.0523888595
12.501               0.994940013   -0.0575049885