! TOUCHSTONE file generated by CST MICROWAVE STUDIO
! Date and time: Mon Jan 20 16:13:08 2025
! Project name: unitcell.cst
! Parameters = {A=1.1164; AB_sqInv=0.80193; B=0.025494; C0=2.097; Cj=0.644347; Cp=0.075; Ct=0.71614; ImZ=-22.224; L=10; L1=0.3; Lp=0.35; Lpad=0.75; M=1.199; R=5.41; ReZ=4.33844; Rt=4.33844; V=5; Vj=2.984; W=10; W1=-0.15; W2=-0.15; Wcoop=3.29; Wgap=1; Wline=1.42; Wpad=0.475; Wpadgap=0.35; Xpad1=1.6225; Xpad2=0.7975; Xpad3=1.6225; Xpad4=0.7975; Xvar_centre=1.21; f=0.01; f0=11; fmax=11.25; fmin=10.75; h=0.8; phi=0; th=0.035; theta=0}
! Header version: 2024
! Port assignment regex: !\s*Touchstone port\s*([0-9]+)\s*=\s*(CST MWS port|CST DES external port|CST DES block port)\s*(.+)\s* \(\"(.*)\"\)(\s*mode\s*([0-9]+))?.*
! Touchstone port assignment:
! Touchstone port 1 = CST MWS port Zmax ("") mode 1
! S-Parameters are not renormalized. Unphysical impedance of 0 will be written to the file.
# GHz S RI R 0
6                    0.119291286     0.962656429
6.011                0.123030677     0.962310159
6.022                0.126768642     0.961948388
6.033                0.130505126     0.961571124
6.044                0.134240074     0.961178375
6.055                0.137973433     0.960770152
6.066                0.141705149     0.960346463
6.077                0.145435168     0.959907318
6.088                0.149163437     0.959452726
6.099                0.152889902     0.958982696
6.11                  0.15661451     0.958497238
6.121                0.160337209     0.957996361
6.132                0.164057944     0.957480075
6.143                0.167776665     0.956948389
6.154                0.171493318     0.956401313
6.165                0.175207851     0.955838857
6.176                0.178920212     0.955261031
6.187                0.182630349     0.954667843
6.198                 0.18633821     0.954059304
6.209                0.190043744     0.953435424
6.22                   0.1937469     0.952796212
6.231                0.197447626     0.952141678
6.242                0.201145871     0.951471832
6.253                0.204841584     0.950786685
6.264                0.208534715     0.950086245
6.275                0.212225213     0.949370522
6.286                0.215913028     0.948639528
6.297                0.219598109      0.94789327
6.308                0.223280407      0.94713176
6.319                0.226959872     0.946355007
6.33                 0.230636453     0.945563021
6.341                0.234310102     0.944755812
6.352                 0.23798077     0.943933389
6.363                0.241648406     0.943095762
6.374                0.245312962     0.942242942
6.385                0.248974389     0.941374938
6.396                0.252632638      0.94049176
6.407                0.256287661     0.939593416
6.418                0.259939409     0.938679918
6.429                0.263587834     0.937751275
6.44                 0.267232889     0.936807495
6.451                0.270874524     0.935848589
6.462                0.274512692     0.934874567
6.473                0.278147346     0.933885437
6.484                0.281778438     0.932881209
6.495                0.285405921     0.931861892
6.506                0.289029747     0.930827495
6.517                 0.29264987     0.929778029
6.528                0.296266242     0.928713501
6.539                0.299878817      0.92763392
6.55                 0.303487549     0.926539297
6.561                 0.30709239     0.925429638
6.572                0.310693294     0.924304955
6.583                0.314290215     0.923165254
6.594                0.317883107     0.922010545
6.605                0.321471925     0.920840835
6.616                0.325056621     0.919656135
6.627                0.328637151     0.918456451
6.638                 0.33221347     0.917241791
6.649                 0.33578553     0.916012165
6.66                 0.339353288      0.91476758
6.671                0.342916698     0.913508044
6.682                0.346475715     0.912233564
6.693                0.350030294     0.910944148
6.704                 0.35358039     0.909639803
6.715                0.357125959     0.908320537
6.726                0.360666955     0.906986358
6.737                0.364203335     0.905637271
6.748                0.367735054     0.904273284
6.759                0.371262068     0.902894404
6.77                 0.374784332     0.901500636
6.781                0.378301803     0.900091989
6.792                0.381814436     0.898668467
6.803                0.385322188     0.897230077
6.814                0.388825015     0.895776825
6.825                0.392322873     0.894308716
6.836                0.395815718     0.892825757
6.847                0.399303508     0.891327951
6.858                0.402786199     0.889815306
6.869                0.406263746     0.888287825
6.88                 0.409736109     0.886745513
6.891                0.413203242     0.885188375
6.902                0.416665103     0.883616416
6.913                0.420121649     0.882029639
6.924                0.423572837     0.880428048
6.935                0.427018624     0.878811647
6.946                0.430458967      0.87718044
6.957                0.433893825      0.87553443
6.968                0.437323153     0.873873619
6.979                0.440746909     0.872198011
6.99                 0.444165051     0.870507608
7.001                0.447577537     0.868802412
7.012                0.450984323     0.867082425
7.023                0.454385368      0.86534765
7.034                0.457780629     0.863598087
7.045                0.461170064     0.861833738
7.056                 0.46455363     0.860054603
7.067                0.467931286     0.858260684
7.078                0.471302988      0.85645198
7.089                0.474668696     0.854628492
7.1                  0.478028366      0.85279022
7.111                0.481381957     0.850937162
7.122                0.484729426     0.849069318
7.133                0.488070732     0.847186687
7.144                0.491405832     0.845289268
7.155                0.494734684     0.843377058
7.166                0.498057246     0.841450055
7.177                0.501373477     0.839508257
7.188                0.504683333      0.83755166
7.199                0.507986773     0.835580263
7.21                 0.511283755      0.83359406
7.221                0.514574237     0.831593048
7.232                0.517858177     0.829577223
7.243                0.521135531     0.827546581
7.254                0.524406259     0.825501115
7.265                0.527670318      0.82344082
7.276                0.530927666     0.821365691
7.287                0.534178259     0.819275721
7.298                0.537422058     0.817170903
7.309                0.540659017     0.815051231
7.32                 0.543889096     0.812916696
7.331                0.547112252     0.810767291
7.342                0.550328441     0.808603007
7.353                0.553537622     0.806423835
7.364                0.556739752     0.804229766
7.375                0.559934788      0.80202079
7.386                0.563122686     0.799796896
7.397                0.566303405     0.797558074
7.408                0.569476901     0.795304312
7.419                 0.57264313     0.793035599
7.43                 0.575802049     0.790751922
7.441                0.578953616     0.788453268
7.452                0.582097786     0.786139624
7.463                0.585234515     0.783810976
7.474                0.588363761     0.781467309
7.485                0.591485479     0.779108608
7.496                0.594599624     0.776734859
7.507                0.597706153     0.774346043
7.518                0.600805021     0.771942145
7.529                0.603896184     0.769523148
7.54                 0.606979597     0.767089032
7.551                0.610055214      0.76463978
7.562                0.613122992     0.762175373
7.573                0.616182883     0.759695789
7.584                0.619234844      0.75720101
7.595                0.622278827     0.754691013
7.606                0.625314788     0.752165777
7.617                 0.62834268     0.749625279
7.628                0.631362456     0.747069495
7.639                 0.63437407     0.744498402
7.65                 0.637377475     0.741911976
7.661                0.640372623      0.73931019
7.672                0.643359467     0.736693018
7.683                0.646337959     0.734060434
7.694                0.649308052     0.731412409
7.705                0.652269697     0.728748915
7.716                0.655222844     0.726069923
7.727                0.658167446     0.723375403
7.738                0.661103452     0.720665323
7.749                0.664030813     0.717939652
7.76                 0.666949478     0.715198357
7.771                0.669859399     0.712441404
7.782                0.672760522     0.709668759
7.793                0.675652798     0.706880387
7.804                0.678536175     0.704076251
7.815                  0.6814106     0.701256315
7.826                0.684276021     0.698420539
7.837                0.687132385     0.695568884
7.848                0.689979639     0.692701311
7.859                0.692817728     0.689817779
7.87                 0.695646599     0.686918245
7.881                0.698466197     0.684002665
7.892                0.701276465     0.681070996
7.903                0.704077349     0.678123193
7.914                0.706868791     0.675159208
7.925                0.709650734     0.672178994
7.936                0.712423122     0.669182503
7.947                0.715185895     0.666169684
7.958                0.717938994     0.663140486
7.969                0.720682361     0.660094857
7.98                 0.723415935     0.657032744
7.991                0.726139655     0.653954092
8.002                0.728853459     0.650858844
8.013                0.731557286     0.647746943
8.024                0.734251072     0.644618331
8.035                0.736934753     0.641472948
8.046                0.739608265     0.638310731
8.057                0.742271543      0.63513162
8.068                 0.74492452     0.631935548
8.079                0.747567129     0.628722451
8.09                 0.750199302     0.625492261
8.101                0.752820971     0.622244909
8.112                0.755432065     0.618980327
8.123                0.758032515     0.615698441
8.134                0.760622247     0.612399178
8.145                 0.76320119     0.609082464
8.156                 0.76576927     0.605748222
8.167                0.768326412     0.602396373
8.178                 0.77087254     0.599026838
8.189                0.773407577     0.595639535
8.2                  0.775931444      0.59223438
8.211                0.778444063     0.588811288
8.222                0.780945352     0.585370171
8.233                 0.78343523     0.581910941
8.244                0.785913613     0.578433507
8.255                0.788380417     0.574937775
8.266                0.790835556     0.571423651
8.277                0.793278942     0.567891037
8.288                0.795710486     0.564339835
8.299                0.798130099     0.560769943
8.31                 0.800537688     0.557181257
8.321                 0.80293316     0.553573673
8.332                0.805316419     0.549947082
8.343                0.807687369     0.546301374
8.354                0.810045911     0.542636437
8.365                0.812391945     0.538952155
8.376                0.814725368     0.535248411
8.387                0.817046076     0.531525086
8.398                0.819353964     0.527782057
8.409                0.821648922     0.524019199
8.42                 0.823930841     0.520236385
8.431                0.826199609     0.516433484
8.442                0.828455111     0.512610363
8.453                0.830697229     0.508766886
8.464                0.832925846     0.504902915
8.475                 0.83514084     0.501018307
8.486                0.837342085     0.497112919
8.497                0.839529457     0.493186602
8.508                0.841702825     0.489239206
8.519                0.843862058     0.485270576
8.53                 0.846007021     0.481280556
8.541                0.848137576     0.477268985
8.552                0.850253584     0.473235698
8.563                0.852354899     0.469180529
8.574                0.854441376     0.465103307
8.585                0.856512865     0.461003857
8.596                0.858569211        0.456882
8.607                0.860610259     0.452737555
8.618                0.862635848     0.448570336
8.629                0.864645813     0.444380154
8.64                 0.866639988     0.440166814
8.651                0.868618199     0.435930119
8.662                0.870580272     0.431669866
8.673                0.872526026      0.42738585
8.684                0.874455277      0.42307786
8.695                0.876367836     0.418745681
8.706                0.878263511     0.414389093
8.717                0.880142102     0.410007871
8.728                0.882003407     0.405601788
8.739                0.883847218     0.401170608
8.75                 0.885673322     0.396714093
8.761                  0.8874815        0.392232
8.772                0.889271528     0.387724079
8.783                0.891043176     0.383190075
8.794                0.892796208     0.378629729
8.805                0.894530383     0.374042776
8.816                0.896245452     0.369428944
8.827                 0.89794116     0.364787957
8.838                0.899617246     0.360119532
8.849                0.901273441     0.355423381
8.86                 0.902909469     0.350699208
8.871                0.904525047     0.345946713
8.882                0.906119883     0.341165588
8.893                0.907693679     0.336355518
8.904                0.909246127     0.331516184
8.915                 0.91077691     0.326647256
8.926                0.912285705     0.321748402
8.937                0.913772177     0.316819277
8.948                0.915235982     0.311859534
8.959                0.916676767     0.306868815
8.97                 0.918094167     0.301846757
8.981                0.919487809     0.296792986
8.992                0.920857308     0.291707122
9.003                0.922202266     0.286588778
9.014                0.923522275     0.281437557
9.025                0.924816915     0.276253053
9.036                0.926085752     0.271034852
9.047                0.927328339     0.265782531
9.058                0.928544217     0.260495659
9.069                0.929732911     0.255173794
9.08                 0.930893933     0.249816486
9.091                0.932026778     0.244423275
9.102                0.933130926     0.238993689
9.113                0.934205842      0.23352725
9.124                0.935250972     0.228023466
9.135                0.936265745     0.222481836
9.146                0.937249572     0.216901849
9.157                0.938201845     0.211282982
9.168                0.939121936     0.205624701
9.179                0.940009196     0.199926462
9.19                 0.940862955     0.194187708
9.201                0.941682521     0.188407869
9.212                0.942467179     0.182586367
9.223                0.943216189     0.176722609
9.234                0.943928788     0.170815989
9.245                0.944604184      0.16486589
9.256                0.945241562     0.158871681
9.267                0.945840074      0.15283272
9.278                0.946398847     0.146748348
9.289                0.946916976     0.140617897
9.3                  0.947393523     0.134440682
9.311                0.947827518     0.128216006
9.322                0.948217958     0.121943156
9.333                0.948563801     0.115621407
9.344                0.948863971     0.109250018
9.355                 0.94911735     0.102828234
9.366                0.949322781    0.0963552868
9.377                0.949479064    0.0898303908
9.388                0.949584956    0.0832527469
9.399                0.949639166    0.0766215409
9.41                 0.949640357    0.0699359435
9.421                 0.94958714    0.0631951101
9.432                0.949478074    0.0563981812
9.443                0.949311664     0.049544282
9.454                0.949086358    0.0426325227
9.465                0.948800543    0.0356619987
9.476                0.948452545    0.0286317902
9.487                0.948040625    0.0215409631
9.498                0.947562974    0.0143885686
9.509                0.947017715   0.00717364376
9.52                 0.946402894 -0.000104787992
9.531                 0.94571648  -0.00744771673
9.542                0.944956362   -0.0148561454
9.553                0.944120343   -0.0223310892
9.564                0.943206137   -0.0298735749
9.575                0.942211364   -0.0374846403
9.586                0.941133549   -0.0451653327
9.597                0.939970113   -0.0529167087
9.608                0.938718372   -0.0607398324
9.619                0.937375529   -0.0686357743
9.63                 0.935938671   -0.0766056097
9.641                0.934404761   -0.0846504174
9.652                0.932770635    -0.092771277
9.663                0.931032996    -0.100969268
9.674                0.929188402    -0.109245466
9.685                0.927233269     -0.11760094
9.696                0.925163854    -0.126036754
9.707                0.922976253    -0.134553955
9.718                0.920666395    -0.143153577
9.729                0.918230027    -0.151836635
9.74                 0.915662714    -0.160604119
9.751                0.912959821    -0.169456989
9.762                0.910116512    -0.178396172
9.773                0.907127734    -0.187422555
9.784                0.903988211    -0.196536975
9.795                 0.90069243    -0.205740219
9.806                0.897234631    -0.215033008
9.817                0.893608797    -0.224415992
9.828                0.889808639    -0.233889742
9.839                0.885827582    -0.243454735
9.85                 0.881658758    -0.253111346
9.861                0.877294985    -0.262859832
9.872                0.872728758     -0.27270032
9.883                0.867952229    -0.282632788
9.894                0.862957196    -0.292657053
9.905                0.857735085    -0.302772747
9.916                0.852276933      -0.3129793
9.927                0.846573374    -0.323275914
9.938                0.840614618     -0.33366154
9.949                0.834390435     -0.34413485
9.96                 0.827890136    -0.354694209
9.971                0.821102559    -0.365337638
9.982                0.814016045    -0.376062782
9.993                0.806618424     -0.38686687
10.004               0.798896996    -0.397746669
10.015                0.79083851    -0.408698442
10.026               0.782429154    -0.419717894
10.037               0.773654534    -0.430800116
10.048               0.764499661    -0.441939526
10.059               0.754948935    -0.453129801
10.07                0.744986139    -0.464363808
10.081               0.734594427    -0.475633521
10.092               0.723756319    -0.486929941
10.103               0.712453701    -0.498243002
10.114               0.700667824    -0.509561472
10.125               0.688379319    -0.520872844
10.136               0.675568207    -0.532163223
10.147               0.662213922      -0.5434172
10.158               0.648295348    -0.554617719
10.169               0.633790856    -0.565745934
10.18                0.618678361    -0.576781054
10.191               0.602935393    -0.587700187
10.202               0.586539179    -0.598478163
10.213                0.56946675    -0.609087355
10.224               0.551695068    -0.619497494
10.235               0.533201172    -0.629675465
10.246                0.51396236    -0.639585111
10.257               0.493956393    -0.649187019
10.268               0.473161743    -0.658438316
10.279               0.451557869    -0.667292456
10.29                0.429125542    -0.675699015
10.301               0.405847217    -0.683603498
10.312               0.381707446     -0.69094715
10.323               0.356693357    -0.697666805
10.334               0.330795179    -0.703694746
10.345               0.304006835    -0.708958616
10.356                0.27632659    -0.713381375
10.367               0.247757767    -0.716881315
10.378               0.218309519    -0.719372152
10.389               0.187997662    -0.720763215
10.4                  0.15684556     -0.72095973
10.411                0.12488505    -0.719863243
10.422              0.0921574064    -0.717372171
10.433              0.0587143066    -0.713382531
10.444              0.0246187998    -0.707788833
10.455             -0.0100537658    -0.700485179
10.466              -0.045214881    -0.691366563
10.477             -0.0807621219    -0.680330393
10.488              -0.116578545    -0.667278223
10.499              -0.152532282    -0.652117708
10.51               -0.188476385    -0.634764744
10.521              -0.224248978     -0.61514579
10.532              -0.259673763    -0.593200306
10.543              -0.294560936    -0.568883276
10.554              -0.328708548    -0.542167729
10.565              -0.361904347    -0.513047185
10.576              -0.393928111    -0.481537929
10.587              -0.424554461    -0.447681004
10.598              -0.453556144     -0.41154382
10.609              -0.480707697    -0.373221267
10.62               -0.505789442    -0.332836236
10.631               -0.52859168    -0.290539461
10.642              -0.548918963    -0.246508619
10.653              -0.566594283    -0.200946664
10.664              -0.581463029    -0.154079385
10.675               -0.59339654    -0.106152249
10.686              -0.602295106    -0.057426587
10.697              -0.608090281  -0.00817525963
10.708              -0.610746407    0.0413220607
10.719              -0.610261281      0.09078382
10.73               -0.606665934     0.139931543
10.741               -0.60002355     0.188494638
10.752              -0.590427568     0.236214888
10.763              -0.577999084     0.282850453
10.774              -0.562883659     0.328179296
10.785              -0.545247685     0.372001915
10.796              -0.525274471     0.414143354
10.807              -0.503160198     0.454454468
10.818              -0.479109884      0.49281248
10.829              -0.453333502     0.529120862
10.84               -0.426042354     0.563308626
10.851              -0.397445784     0.595329121
10.862              -0.367748294     0.625158413
10.873              -0.337147093     0.652793378
10.884              -0.305830099     0.678249571
10.895              -0.273974377        0.701559
10.9                -0.259361524     0.711456545
10.906              -0.241745004     0.722767843
10.917              -0.209294319     0.741934217
10.928              -0.176761515     0.759126015
10.939              -0.144272533     0.774418882
10.95               -0.111940215     0.787894348
10.961             -0.0798646528     0.799638126
10.972             -0.0481337059     0.809738611
10.983             -0.0168236402     0.818285555
10.994              0.0140001483     0.825368935
11.005               0.044282355     0.831077989
11.016              0.0739769601      0.83550042
11.027               0.103046414     0.838721751
11.038               0.131460837     0.840824812
11.049               0.159197238     0.841889347
11.06                0.186238771     0.841991734
11.071               0.212574036     0.841204779
11.082               0.238196418     0.839597608
11.093               0.263103482     0.837235604
11.104               0.287296415     0.834180409
11.115               0.310779515     0.830489968
11.126               0.333559731     0.826218603
11.137               0.355646252     0.821417118
11.148               0.377050131     0.816132924
11.159               0.397783956     0.810410175
11.17                0.417861562      0.80428992
11.181               0.437297765     0.797810257
11.192               0.456108146      0.79100649
11.203               0.474308847      0.78391129
11.214               0.491916404      0.77655485
11.225               0.508947597     0.768965039
11.236               0.525419327     0.761167552
11.247               0.541348504     0.753186055
11.258               0.556751959     0.745042321
11.269               0.571646369     0.736756361
11.28                0.586048185     0.728346553
11.291               0.599973591     0.719829753
11.302                0.61343845     0.711221414
11.313               0.626458279     0.702535684
11.324               0.639048216     0.693785508
11.335               0.651223003     0.684982717
11.346                0.66299697     0.676138114
11.357               0.674384024     0.667261555
11.368               0.685397646     0.658362021
11.379               0.696050884     0.649447686
11.39                0.706356358     0.640525984
11.401               0.716326258     0.631603666
11.412               0.725972353     0.622686854
11.423               0.735305992      0.61378109
11.434                0.74433812      0.60489139
11.445               0.753079276     0.596022278
11.456               0.761539612      0.58717783
11.467               0.769728897     0.578361714
11.478               0.777656534     0.569577216
11.489               0.785331562     0.560827278
11.5                 0.792762677     0.552114524
11.511               0.799958237     0.543441289
11.522               0.806926275     0.534809637
11.533               0.813674512     0.526221391
11.544               0.820210366     0.517678151
11.555               0.826540964     0.509181309
11.566               0.832673155     0.500732073
11.577               0.838613517      0.49233148
11.588               0.844368368      0.48398041
11.599               0.849943781       0.4756796
11.61                0.855345588     0.467429658
11.621               0.860579392     0.459231073
11.632               0.865650575     0.451084227
11.643                0.87056431     0.442989403
11.654               0.875325567     0.434946796
11.665               0.879939122     0.426956517
11.676               0.884409565     0.419018608
11.687               0.888741307      0.41113304
11.698                0.89293859     0.403299728
11.709                0.89700549     0.395518529
11.72                0.900945928     0.387789254
11.731               0.904763673     0.380111668
11.742               0.908462353     0.372485498
11.753               0.912045454     0.364910435
11.764               0.915516334     0.357386137
11.775                0.91887822     0.349912236
11.786               0.922134221      0.34248834
11.797               0.925287328     0.335114032
11.808               0.928340422     0.327788878
11.819               0.931296276     0.320512427
11.83                 0.93415756     0.313284213
11.841               0.936926847     0.306103757
11.852               0.939606617     0.298970571
11.863               0.942199257     0.291884157
11.874               0.944707071      0.28484401
11.885               0.947132276      0.27784962
11.896               0.949477013     0.270900471
11.907               0.951743345     0.263996045
11.918               0.953933262     0.257135821
11.929               0.956048684     0.250319276
11.94                0.958091465     0.243545888
11.951               0.960063391     0.236815136
11.962               0.961966189     0.230126498
11.973               0.963801525     0.223479456
11.984               0.965571008     0.216873492
11.995               0.967276192     0.210308094
12.006               0.968918578     0.203782751
12.017               0.970499618     0.197296957
12.028               0.972020713      0.19085021
12.039               0.973483218     0.184442013
12.05                0.974888444     0.178071874
12.061               0.976237656     0.171739306
12.072               0.977532081     0.165443827
12.083               0.978772904      0.15918496
12.094               0.979961271     0.152962237
12.105               0.981098292     0.146775192
12.116               0.982185041     0.140623369
12.127               0.983222559     0.134506314
12.138               0.984211851     0.128423584
12.149               0.985153894     0.122374737
12.16                0.986049631     0.116359344
12.171               0.986899978     0.110376976
12.182               0.987705822     0.104427214
12.193               0.988468021    0.0985096464
12.204                0.98918741    0.0926238657
12.215               0.989864795    0.0867694722
12.226               0.990500961    0.0809460725
12.237               0.991096666    0.0751532799
12.248               0.991652648    0.0693907139
12.259               0.992169622    0.0636580006
12.27                0.992648282    0.0579547724
12.281               0.993089302    0.0522806681
12.292               0.993493334     0.046635333
12.303               0.993861015    0.0410184182
12.314               0.994192961    0.0354295813
12.325               0.994489771     0.029868486
12.336               0.994752026    0.0243348019
12.347               0.994980292    0.0188282046
12.358               0.995175119    0.0133483758
12.369               0.995337039   0.00789500266
12.38                0.995466574   0.00246777845
12.391               0.995564226  -0.00293359809
12.402               0.995630488  -0.00830942259
12.413               0.995665837   -0.0136599851
12.424               0.995670737   -0.0189855704
12.435               0.995645641   -0.0242864578
12.446               0.995590987   -0.0295629212
12.457               0.995507206   -0.0348152297
12.468               0.995394713   -0.0400436469
12.479               0.995253914   -0.0452484317
12.49                0.995085204   -0.0504298377
12.501               0.994888969    -0.055588114