! TOUCHSTONE file generated by CST MICROWAVE STUDIO
! Date and time: Mon Jan 20 16:13:08 2025
! Project name: unitcell.cst
! Parameters = {A=1.13409; AB_sqInv=0.777118; B=0.025494; C0=2.097; Cj=0.559335; Cp=0.075; Ct=0.631955; ImZ=-25.1846; L=10; L1=0.3; Lp=0.35; Lpad=0.75; M=1.199; R=5.41; ReZ=4.20421; Rt=4.20421; V=6; Vj=2.984; W=10; W1=-0.15; W2=-0.15; Wcoop=3.29; Wgap=1; Wline=1.42; Wpad=0.475; Wpadgap=0.35; Xpad1=1.6225; Xpad2=0.7975; Xpad3=1.6225; Xpad4=0.7975; Xvar_centre=1.21; f=0.01; f0=11; fmax=11.25; fmin=10.75; h=0.8; phi=0; th=0.035; theta=0}
! Header version: 2024
! Port assignment regex: !\s*Touchstone port\s*([0-9]+)\s*=\s*(CST MWS port|CST DES external port|CST DES block port)\s*(.+)\s* \(\"(.*)\"\)(\s*mode\s*([0-9]+))?.*
! Touchstone port assignment:
! Touchstone port 1 = CST MWS port Zmax ("") mode 1
! S-Parameters are not renormalized. Unphysical impedance of 0 will be written to the file.
# GHz S RI R 0
6                   0.0809353869     0.957999183
6.011               0.0848729402     0.957872438
6.022               0.0888086939     0.957727877
6.033               0.0927425798     0.957565528
6.044               0.0966745303     0.957385418
6.055                0.100604478     0.957187576
6.066                0.104532357     0.956972029
6.077                0.108458099     0.956738806
6.088                 0.11238164     0.956487933
6.099                0.116302913     0.956219439
6.11                 0.120221853     0.955933353
6.121                0.124138395     0.955629701
6.132                0.128052476     0.955308513
6.143                0.131964031     0.954969817
6.154                0.135872996     0.954613641
6.165                0.139779309     0.954240013
6.176                0.143682906     0.953848961
6.187                0.147583725     0.953440514
6.198                0.151481703       0.9530147
6.209                 0.15537678     0.952571547
6.22                 0.159268894     0.952111084
6.231                0.163157985     0.951633339
6.242                 0.16704399     0.951138341
6.253                0.170926852     0.950626117
6.264                0.174806509     0.950096697
6.275                0.178682902     0.949550108
6.286                0.182555972     0.948986378
6.297                0.186425661     0.948405536
6.308                0.190291911      0.94780761
6.319                0.194154662     0.947192629
6.33                 0.198013859      0.94656062
6.341                0.201869443     0.945911611
6.352                0.205721358     0.945245631
6.363                0.209569547     0.944562708
6.374                0.213413954     0.943862868
6.385                0.217254523     0.943146141
6.396                0.221091199     0.942412554
6.407                0.224923927     0.941662135
6.418                0.228752652     0.940894911
6.429                0.232577319      0.94011091
6.44                 0.236397874     0.939310159
6.451                0.240214264     0.938492686
6.462                0.244026434     0.937658518
6.473                0.247834333     0.936807682
6.484                0.251637906     0.935940206
6.495                0.255437102     0.935056115
6.506                0.259231868     0.934155438
6.517                0.263022153       0.9332382
6.528                0.266807905     0.932304429
6.539                0.270589072     0.931354151
6.55                 0.274365604     0.930387392
6.561                 0.27813745     0.929404178
6.572                0.281904559     0.928404535
6.583                0.285666882     0.927388491
6.594                0.289424369     0.926356069
6.605                 0.29317697     0.925307296
6.616                0.296924636     0.924242197
6.627                0.300667318     0.923160798
6.638                0.304404968     0.922063123
6.649                0.308137537     0.920949198
6.66                 0.311864977     0.919819048
6.671                 0.31558724     0.918672697
6.682                0.319304279     0.917510169
6.693                0.323016047     0.916331489
6.704                0.326722495      0.91513668
6.715                0.330423579     0.913925768
6.726                 0.33411925     0.912698774
6.737                0.337809463     0.911455724
6.748                0.341494172     0.910196639
6.759                0.345173331     0.908921543
6.77                 0.348846894     0.907630459
6.781                0.352514817      0.90632341
6.792                0.356177053     0.905000417
6.803                0.359833559     0.903661503
6.814                0.363484289      0.90230669
6.825                0.367129199     0.900935999
6.836                0.370768245     0.899549452
6.847                0.374401383      0.89814707
6.858                0.378028569     0.896728873
6.869                 0.38164976     0.895294883
6.88                 0.385264912      0.89384512
6.891                0.388873983     0.892379604
6.902                0.392476928     0.890898355
6.913                0.396073706     0.889401392
6.924                0.399664274     0.887888734
6.935                0.403248589     0.886360401
6.946                0.406826609     0.884816411
6.957                0.410398293     0.883256783
6.968                0.413963598     0.881681535
6.979                0.417522482     0.880090684
6.99                 0.421074905     0.878484248
7.001                0.424620824     0.876862245
7.012                0.428160199      0.87522469
7.023                0.431692988     0.873571601
7.034                0.435219151     0.871902994
7.045                0.438738647     0.870218884
7.056                0.442251435     0.868519287
7.067                0.445757474     0.866804218
7.078                0.449256725     0.865073693
7.089                0.452749147     0.863327725
7.1                    0.4562347     0.861566328
7.111                0.459713344     0.859789517
7.122                0.463185039     0.857997305
7.133                0.466649745     0.856189704
7.144                0.470107423     0.854366727
7.155                0.473558033     0.852528387
7.166                0.477001535     0.850674695
7.177                0.480437891     0.848805662
7.188                0.483867061       0.8469213
7.199                0.487289006      0.84502162
7.21                 0.490703686     0.843106631
7.221                0.494111063     0.841176343
7.232                0.497511097     0.839230765
7.243                0.500903751     0.837269907
7.254                0.504288983     0.835293777
7.265                0.507666757     0.833302382
7.276                0.511037033     0.831295731
7.287                0.514399773      0.82927383
7.298                0.517754937     0.827236686
7.309                0.521102487     0.825184306
7.32                 0.524442385     0.823116694
7.331                0.527774591     0.821033856
7.342                0.531099068     0.818935797
7.353                0.534415777      0.81682252
7.364                0.537724678     0.814694031
7.375                0.541025734      0.81255033
7.386                0.544318905     0.810391422
7.397                0.547604154     0.808217309
7.408                0.550881441     0.806027991
7.419                0.554150728     0.803823471
7.43                 0.557411976     0.801603747
7.441                0.560665147     0.799368821
7.452                0.563910201     0.797118692
7.463                  0.5671471     0.794853359
7.474                0.570375804     0.792572818
7.485                0.573596276     0.790277069
7.496                0.576808475     0.787966109
7.507                0.580012363     0.785639932
7.518                0.583207901     0.783298536
7.529                0.586395048     0.780941916
7.54                 0.589573766     0.778570065
7.551                0.592744016     0.776182978
7.562                0.595905757     0.773780649
7.573                 0.59905895     0.771363068
7.584                0.602203554     0.768930229
7.595                0.605339531     0.766482123
7.606                0.608466839     0.764018739
7.617                0.611585438     0.761540068
7.628                0.614695289     0.759046099
7.639                0.617796349      0.75653682
7.65                 0.620888579     0.754012219
7.661                0.623971937     0.751472283
7.672                0.627046382     0.748916997
7.683                0.630111872     0.746346347
7.694                0.633168366     0.743760317
7.705                0.636215822     0.741158892
7.716                0.639254198     0.738542054
7.727                0.642283451     0.735909786
7.738                0.645303538     0.733262068
7.749                0.648314417     0.730598881
7.76                 0.651316045     0.727920205
7.771                0.654308378     0.725226019
7.782                0.657291372     0.722516299
7.793                0.660264983     0.719791024
7.804                0.663229166      0.71705017
7.815                0.666183877      0.71429371
7.826                0.669129071     0.711521621
7.837                0.672064703     0.708733874
7.848                0.674990725     0.705930443
7.859                0.677907092     0.703111297
7.87                 0.680813758     0.700276409
7.881                0.683710675     0.697425747
7.892                0.686597796     0.694559278
7.903                0.689475073     0.691676972
7.914                0.692342457     0.688778792
7.925                  0.6951999     0.685864706
7.936                0.698047352     0.682934676
7.947                0.700884763     0.679988665
7.958                0.703712084     0.677026636
7.969                0.706529262     0.674048548
7.98                 0.709336247     0.671054362
7.991                0.712132986     0.668044034
8.002                0.714919428     0.665017523
8.013                0.717695518     0.661974783
8.024                0.720461203      0.65891577
8.035                0.723216428     0.655840436
8.046                0.725961139     0.652748734
8.057                0.728695278     0.649640614
8.068                0.731418791     0.646516025
8.079                0.734131619     0.643374915
8.09                 0.736833705     0.640217231
8.101                 0.73952499     0.637042918
8.112                0.742205413     0.633851918
8.123                0.744874916     0.630644176
8.134                0.747533436      0.62741963
8.145                0.750180912      0.62417822
8.156                0.752817281     0.620919885
8.167                0.755442478     0.617644559
8.178                0.758056439     0.614352178
8.189                0.760659098     0.611042673
8.2                  0.763250389     0.607715977
8.211                0.765830243     0.604372019
8.222                0.768398592     0.601010726
8.233                0.770955366     0.597632024
8.244                0.773500494     0.594235838
8.255                0.776033903      0.59082209
8.266                 0.77855552     0.587390701
8.277                0.781065271     0.583941588
8.288                 0.78356308      0.58047467
8.299                0.786048869      0.57698986
8.31                 0.788522561     0.573487072
8.321                0.790984075     0.569966215
8.332                0.793433329       0.5664272
8.343                0.795870243     0.562869932
8.354                 0.79829473     0.559294316
8.365                0.800706706     0.555700254
8.376                0.803106084     0.552087645
8.387                0.805492773     0.548456389
8.398                0.807866685     0.544806379
8.409                0.810227726      0.54113751
8.42                 0.812575803     0.537449672
8.431                 0.81491082     0.533742752
8.442                0.817232678     0.530016637
8.453                0.819541279     0.526271209
8.464                 0.82183652     0.522506349
8.475                0.824118298     0.518721935
8.486                0.826386507     0.514917843
8.497                0.828641039     0.511093943
8.508                0.830881785     0.507250106
8.519                 0.83310863     0.503386198
8.53                 0.835321461     0.499502083
8.541                 0.83752016     0.495597622
8.552                0.839704607     0.491672672
8.563                 0.84187468     0.487727087
8.574                0.844030254      0.48376072
8.585                0.846171201     0.479773417
8.596                0.848297389     0.475765024
8.607                0.850408686     0.471735381
8.618                0.852504955     0.467684328
8.629                0.854586056     0.463611697
8.64                 0.856651846      0.45951732
8.651                0.858702178     0.455401023
8.662                0.860736904      0.45126263
8.673                0.862755869      0.44710196
8.684                0.864758917     0.442918829
8.695                0.866745888     0.438713048
8.706                0.868716616     0.434484423
8.717                0.870670934      0.43023276
8.728                0.872608669     0.425957855
8.739                0.874529644     0.421659504
8.75                 0.876433679     0.417337496
8.761                0.878320586     0.412991618
8.772                0.880190176      0.40862165
8.783                0.882042255     0.404227367
8.794                0.883876621     0.399808542
8.805                0.885693069     0.395364939
8.816                0.887491389     0.390896321
8.827                0.889271365     0.386402444
8.838                0.891032774     0.381883057
8.849                0.892775391     0.377337906
8.86                 0.894498979     0.372766731
8.871                0.896203301     0.368169265
8.882                0.897888109     0.363545237
8.893                0.899553151      0.35889437
8.904                0.901198166     0.354216379
8.915                0.902822887     0.349510974
8.926                 0.90442704     0.344777859
8.937                0.906010343     0.340016731
8.948                0.907572505     0.335227282
8.959                0.909113228     0.330409194
8.97                 0.910632206     0.325562146
8.981                0.912129123     0.320685806
8.992                0.913603654     0.315779838
9.003                0.915055466     0.310843897
9.014                0.916484214      0.30587763
9.025                0.917889544     0.300880679
9.036                0.919271093     0.295852675
9.047                0.920628485     0.290793243
9.058                0.921961333     0.285701998
9.069                 0.92326924     0.280578549
9.08                 0.924551796     0.275422494
9.091                0.925808577     0.270233423
9.102                0.927039148     0.265010918
9.113                 0.92824306     0.259754551
9.124                0.929419851     0.254463885
9.135                0.930569041     0.249138473
9.146                 0.93169014     0.243777859
9.157                0.932782637     0.238381576
9.168                0.933846011     0.232949147
9.179                0.934879718     0.227480085
9.19                   0.9358832     0.221973894
9.201                 0.93685588     0.216430063
9.212                0.937797163     0.210848074
9.223                0.938706432     0.205227397
9.234                0.939583053     0.199567488
9.245                0.940426369     0.193867793
9.256                  0.9412357     0.188127747
9.267                0.942010344     0.182346772
9.278                0.942749576     0.176524277
9.289                0.943452646     0.170659659
9.3                  0.944118777     0.164752301
9.311                0.944747166     0.158801575
9.322                0.945336981     0.152806838
9.333                0.945887364     0.146767434
9.344                0.946397423     0.140682693
9.355                0.946866236     0.134551932
9.366                0.947292848     0.128374452
9.377                0.947676271     0.122149541
9.388                0.948015479     0.115876472
9.399                 0.94830941     0.109554502
9.41                 0.948556963     0.103182877
9.421                0.948756997     0.096760822
9.432                0.948908328    0.0902875515
9.443                0.949009729    0.0837622624
9.454                0.949059925    0.0771841364
9.465                0.949057596    0.0705523396
9.476                0.949001368    0.0638660223
9.487                0.948889818    0.0571243192
9.498                0.948721468    0.0503263489
9.509                0.948494781    0.0434712145
9.52                 0.948208161     0.036558003
9.531                0.947859951    0.0295857861
9.542                0.947448428    0.0225536198
9.553                0.946971801    0.0154605445
9.564                0.946428207   0.00830558596
9.575                0.945815708   0.00108775471
9.586                0.945132291  -0.00619395296
9.597                0.944375859   -0.0135405548
9.608                 0.94354423   -0.0209530821
9.619                0.942635132    -0.028432579
9.63                 0.941646201   -0.0359801015
9.641                0.940574975   -0.0435967174
9.652                0.939418887   -0.0512835043
9.663                0.938175266   -0.0590415494
9.674                0.936841326   -0.0668719475
9.685                0.935414163   -0.0747758004
9.696                0.933890751   -0.0827542144
9.707                0.932267934    -0.090808299
9.718                 0.93054242    -0.098939165
9.729                0.928710773    -0.107147922
9.74                  0.92676941    -0.115435675
9.751                 0.92471459    -0.123803523
9.762                0.922542409    -0.132252556
9.773                 0.92024879    -0.140783849
9.784                0.917829476    -0.149398461
9.795                 0.91528002    -0.158097429
9.806                0.912595776    -0.166881762
9.817                 0.90977189    -0.175752439
9.828                 0.90680329    -0.184710401
9.839                0.903684673    -0.193756543
9.85                 0.900410498    -0.202891709
9.861                0.896974968    -0.212116684
9.872                0.893372025    -0.221432183
9.883                0.889595332    -0.230838842
9.894                0.885638259     -0.24033721
9.905                0.881493876    -0.249927732
9.916                0.877154929    -0.259610739
9.927                0.872613831    -0.269386435
9.938                0.867862646    -0.279254878
9.949                0.862893068    -0.289215961
9.96                 0.857696411      -0.2992694
9.971                0.852263585    -0.309414704
9.982                0.846585081    -0.319651157
9.993                0.840650953    -0.329977794
10.004                 0.8344508    -0.340393365
10.015               0.827973741    -0.350896313
10.026               0.821208402    -0.361484736
10.037               0.814142895     -0.37215635
10.048               0.806764793    -0.382908447
10.059               0.799061118    -0.393737854
10.07                0.791018316    -0.404640884
10.081               0.782622241    -0.415613279
10.092               0.773858135    -0.426650154
10.103               0.764710615    -0.437745936
10.114               0.755163654     -0.44889429
10.125                0.74520057    -0.460088047
10.136               0.734804013    -0.471319118
10.147               0.723955961    -0.482578409
10.158               0.712637717    -0.493855722
10.169               0.700829906    -0.505139647
10.18                0.688512485    -0.516417451
10.191               0.675664758    -0.527674954
10.202               0.662265396    -0.538896396
10.213               0.648292473    -0.550064292
10.224               0.633723502    -0.561159282
10.235               0.618535499    -0.572159965
10.246               0.602705051    -0.583042726
10.257               0.586208406    -0.593781547
10.268               0.569021583    -0.604347816
10.279               0.551120506     -0.61471012
10.29                0.532481164     -0.62483403
10.301               0.513079798    -0.634681881
10.312                0.49289313    -0.644212544
10.323               0.471898621    -0.653381195
10.334               0.450074775    -0.662139088
10.345               0.427401494    -0.670433328
10.356               0.403860477    -0.678206656
10.367               0.379435679    -0.685397245
10.378                0.35411383    -0.691938531
10.389               0.327885018     -0.69775906
10.4                 0.300743336    -0.702782395
10.411               0.272687605    -0.706927065
10.422               0.243722158    -0.710106593
10.433               0.213857702    -0.712229607
10.444               0.183112237     -0.71320005
10.455               0.151512034    -0.712917521
10.466               0.119092668    -0.711277753
10.477              0.0859000737     -0.70817326
10.488               0.051991618    -0.703494163
10.499               0.017437156    -0.697129229
10.51              -0.0176799584    -0.688967132
10.521             -0.0532619484    -0.678897942
10.532             -0.0891958236    -0.666814875
10.543              -0.125352771    -0.652616272
10.554              -0.161587793     -0.63620783
10.565              -0.197739638    -0.617505029
10.576              -0.233631108    -0.596435755
10.587              -0.269069783    -0.572943036
10.598              -0.303849228    -0.546987835
10.609              -0.337750717    -0.518551821
10.62               -0.370545518    -0.487639996
10.631              -0.401997721     -0.45428308
10.642              -0.431867615    -0.418539527
10.653              -0.459915546    -0.380497034
10.664              -0.485906186    -0.340273436
10.675              -0.509613101    -0.298016874
10.686              -0.530823458    -0.253905144
10.697              -0.549342738    -0.208144193
10.708              -0.564999229    -0.160965728
10.719              -0.577648152    -0.112623983
10.73               -0.587175205   -0.0633917125
10.741              -0.593499374   -0.0135555445
10.752              -0.596574887    0.0365891598
10.763              -0.596392196    0.0867437384
10.774              -0.592977971      0.13661175
10.785              -0.586394085     0.185904367
10.796               -0.57673568     0.234345445
10.807              -0.564128384     0.281676077
10.818              -0.548724845     0.327658496
10.829              -0.530700743     0.372079209
10.84               -0.510250442      0.41475131
10.851              -0.487582496     0.455515947
10.862               -0.46291515     0.494242966
10.873              -0.436472009     0.530830798
10.884              -0.408477999     0.565205667
10.895              -0.379155714     0.597320219
10.9                -0.365447291     0.611163524
10.906              -0.348722224      0.62715171
10.917              -0.317386386     0.654699839
10.928              -0.285346659     0.679984365
10.939              -0.252789431     0.703042598
10.95               -0.219887821     0.723926862
10.961              -0.186800907     0.742702003
10.972              -0.153673356     0.759443008
10.983              -0.120635369     0.774232777
10.994             -0.0878029175     0.787160076
11.005             -0.0552781948     0.798317706
11.016             -0.0231502395     0.807800878
11.027             0.00850431158     0.815705804
11.038              0.0396203867     0.822128499
11.049              0.0701435911     0.827163777
11.06                0.100029297     0.830904433
11.071               0.129241733     0.833440581
11.082               0.157753097     0.834859154
11.093               0.185542702     0.835243519
11.104                0.21259616     0.834673216
11.115               0.238904624     0.833223782
11.126               0.264464084     0.830966667
11.137               0.289274715     0.827969205
11.148               0.313340284      0.82429465
11.159               0.336667621     0.820002245
11.17                0.359266125     0.815147336
11.181               0.381147345     0.809781501
11.192                0.40232459     0.803952705
11.203               0.422812592     0.797705465
11.214               0.442627208     0.791081023
11.225               0.461785162     0.784117525
11.236               0.480303816     0.776850201
11.247               0.498200977     0.769311537
11.258               0.515494727     0.761531456
11.269               0.532203278     0.753537482
11.28                0.548344853     0.745354904
11.291               0.563937581     0.737006933
11.302               0.578999412     0.728514848
11.313               0.593548044     0.719898137
11.324               0.607600866     0.711174631
11.335               0.621174911     0.702360629
11.346               0.634286818     0.693471013
11.357               0.646952804     0.684519356
11.368                0.65918864     0.675518032
11.379               0.671009641       0.6664783
11.39                0.682430648       0.6574104
11.401               0.693466029     0.648323632
11.412               0.704129675     0.639226435
11.423                  0.714435     0.630126452
11.434               0.724394948     0.621030597
11.445               0.734021994      0.61194512
11.456               0.743328157     0.602875654
11.467               0.752325008     0.593827272
11.478               0.761023678     0.584804532
11.489               0.769434874     0.575811519
11.5                 0.777568885     0.566851888
11.511                 0.7854356     0.557928899
11.522               0.793044517     0.549045449
11.533               0.800404758     0.540204105
11.544               0.807525081     0.531407133
11.555               0.814413894     0.522656523
11.566               0.821079267     0.513954011
11.577               0.827528943     0.505301106
11.588               0.833770356     0.496699106
11.599               0.839810638     0.488149118
11.61                 0.84565663     0.479652074
11.621                 0.8513149     0.471208751
11.632               0.856791748     0.462819778
11.643               0.862093221     0.454485655
11.654               0.867225121     0.446206763
11.665               0.872193017     0.437983376
11.676               0.877002252     0.429815669
11.687               0.881657957     0.421703728
11.698               0.886165056     0.413647562
11.709               0.890528277     0.405647105
11.72                 0.89475216     0.397702227
11.731               0.898841064     0.389812742
11.742               0.902799175     0.381978407
11.753               0.906630517     0.374198936
11.764               0.910338954     0.366473999
11.775               0.913928197     0.358803231
11.786               0.917401817      0.35118623
11.797               0.920763242     0.343622569
11.808               0.924015772     0.336111793
11.819               0.927162575     0.328653425
11.83                0.930206703     0.321246968
11.841               0.933151088     0.313891909
11.852               0.935998553      0.30658772
11.863               0.938751813      0.29933386
11.874               0.941413483      0.29212978
11.885               0.943986078      0.28497492
11.896               0.946472022     0.277868716
11.907               0.948873648     0.270810597
11.918               0.951193203     0.263799989
11.929               0.953432852     0.256836314
11.94                0.955594683     0.249918997
11.951               0.957680706     0.243047457
11.962               0.959692859     0.236221118
11.973               0.961633013     0.229439403
11.984               0.963502969     0.222701739
11.995               0.965304468     0.216007555
12.006               0.967039186     0.209356284
12.017               0.968708743     0.202747361
12.028               0.970314702      0.19618023
12.039                0.97185857     0.189654336
12.05                0.973341806     0.183169131
12.061               0.974765816     0.176724073
12.072               0.976131958     0.170318626
12.083               0.977441547     0.163952258
12.094               0.978695852     0.157624448
12.105               0.979896097     0.151334678
12.116               0.981043471     0.145082439
12.127               0.982139119     0.138867227
12.138               0.983184151     0.132688548
12.149               0.984179638     0.126545912
12.16                 0.98512662     0.120438839
12.171               0.986026101     0.114366855
12.182               0.986879053     0.108329494
12.193               0.987686418     0.102326297
12.204               0.988449106    0.0963568124
12.215               0.989168001    0.0904205964
12.226               0.989843959    0.0845172124
12.237               0.990477806    0.0786462313
12.248               0.991070348    0.0728072314
12.259               0.991622361    0.0669997981
12.27                  0.9921346    0.0612235242
12.281               0.992607797    0.0554780098
12.292               0.993042661     0.049762862
12.303               0.993439881    0.0440776949
12.314               0.993800123    0.0384221299
12.325               0.994124036     0.032795795
12.336               0.994412249    0.0271983253
12.347               0.994665372    0.0216293626
12.358               0.994883997    0.0160885552
12.369               0.995068701    0.0105755581
12.38                0.995220041   0.00509003303
12.391               0.995338561 -0.000368352232
12.402               0.995424788  -0.00579992339
12.413               0.995479236       -0.011205
12.424               0.995502402   -0.0165838954
12.435                0.99549477    -0.021936917
12.446               0.995456812   -0.0272643663
12.457               0.995388986   -0.0325665388
12.468               0.995291737   -0.0378437244
12.479               0.995165498   -0.0430962073
12.49                0.995010692   -0.0483242661
12.501               0.994827729   -0.0535281741