! TOUCHSTONE file generated by CST MICROWAVE STUDIO
! Date and time: Mon Jan 20 16:13:08 2025
! Project name: unitcell.cst
! Parameters = {A=1.15218; AB_sqInv=0.752922; B=0.025494; C0=2.097; Cj=0.492851; Cp=0.075; Ct=0.566031; ImZ=-28.1177; L=10; L1=0.3; Lp=0.35; Lpad=0.75; M=1.199; R=5.41; ReZ=4.07331; Rt=4.07331; V=7; Vj=2.984; W=10; W1=-0.15; W2=-0.15; Wcoop=3.29; Wgap=1; Wline=1.42; Wpad=0.475; Wpadgap=0.35; Xpad1=1.6225; Xpad2=0.7975; Xpad3=1.6225; Xpad4=0.7975; Xvar_centre=1.21; f=0.01; f0=11; fmax=11.25; fmin=10.75; h=0.8; phi=0; th=0.035; theta=0}
! Header version: 2024
! Port assignment regex: !\s*Touchstone port\s*([0-9]+)\s*=\s*(CST MWS port|CST DES external port|CST DES block port)\s*(.+)\s* \(\"(.*)\"\)(\s*mode\s*([0-9]+))?.*
! Touchstone port assignment:
! Touchstone port 1 = CST MWS port Zmax ("") mode 1
! S-Parameters are not renormalized. Unphysical impedance of 0 will be written to the file.
# GHz S RI R 0
6                   0.0303487784     0.947777541
6.011               0.0350585511     0.948229874
6.022               0.0397542828     0.948646419
6.033               0.0444359717     0.949027716
6.044               0.0491036213     0.949374296
6.055                 0.05375724     0.949686674
6.066               0.0583968407     0.949965357
6.077               0.0630224409     0.950210836
6.088               0.0676340623     0.950423593
6.099               0.0722317301     0.950604099
6.11                0.0768154735     0.950752812
6.121               0.0813853248      0.95087018
6.132               0.0859413196     0.950956641
6.143               0.0904834964     0.951012622
6.154               0.0950118964      0.95103854
6.165               0.0995265635     0.951034802
6.176                0.104027544     0.951001806
6.187                0.108514885      0.95093994
6.198                0.112988639     0.950849583
6.209                0.117448856     0.950731104
6.22                 0.121895592     0.950584866
6.231                0.126328901     0.950411221
6.242                 0.13074884     0.950210512
6.253                0.135155468     0.949983076
6.264                0.139548845     0.949729241
6.275                0.143929029     0.949449327
6.286                0.148296084     0.949143648
6.297                0.152650071     0.948812507
6.308                0.156991054     0.948456203
6.319                0.161319095     0.948075027
6.33                  0.16563426     0.947669262
6.341                0.169936613     0.947239187
6.352                0.174226219      0.94678507
6.363                0.178503144     0.946307177
6.374                0.182767453     0.945805765
6.385                0.187019213     0.945281086
6.396                0.191258489     0.944733385
6.407                0.195485347     0.944162902
6.418                0.199699854     0.943569871
6.429                0.203902075      0.94295452
6.44                 0.208092077     0.942317073
6.451                0.212269925     0.941657747
6.462                0.216435684     0.940976754
6.473                 0.22058942     0.940274302
6.484                0.224731199     0.939550592
6.495                0.228861083     0.938805823
6.506                0.232979139     0.938040187
6.517                0.237085429     0.937253872
6.528                0.241180018     0.936447061
6.539                0.245262967     0.935619934
6.55                  0.24933434     0.934772665
6.561                0.253394199     0.933905426
6.572                0.257442605     0.933018381
6.583                0.261479619     0.932111695
6.594                0.265505301     0.931185524
6.605                 0.26951971     0.930240024
6.616                0.273522907     0.929275346
6.627                0.277514949     0.928291636
6.638                0.281495893     0.927289038
6.649                0.285465798     0.926267692
6.66                 0.289424718     0.925227735
6.671                0.293372711     0.924169299
6.682                 0.29730983     0.923092516
6.693                 0.30123613      0.92199751
6.704                0.305151664     0.920884407
6.715                0.309056485     0.919753325
6.726                0.312950645     0.918604384
6.737                0.316834195     0.917437697
6.748                0.320707185     0.916253376
6.759                0.324569665     0.915051529
6.77                 0.328421684     0.913832263
6.781                0.332263289     0.912595682
6.792                0.336094528     0.911341885
6.803                0.339915447      0.91007097
6.814                0.343726092     0.908783035
6.825                0.347526508     0.907478171
6.836                0.351316737     0.906156469
6.847                0.355096825     0.904818017
6.858                0.358866812     0.903462902
6.869                 0.36262674     0.902091208
6.88                 0.366376651     0.900703014
6.891                0.370116583     0.899298402
6.902                0.373846577     0.897877448
6.913                0.377566669     0.896440227
6.924                0.381276899     0.894986812
6.935                0.384977301     0.893517274
6.946                0.388667912     0.892031682
6.957                0.392348767     0.890530103
6.968                  0.3960199     0.889012601
6.979                0.399681344     0.887479242
6.99                 0.403333133     0.885930085
7.001                0.406975296      0.88436519
7.012                0.410607866     0.882784616
7.023                0.414230873     0.881188418
7.034                0.417844345     0.879576651
7.045                0.421448312     0.877949367
7.056                0.425042801     0.876306619
7.067                0.428627838     0.874648454
7.078                0.432203451     0.872974922
7.089                0.435769664     0.871286068
7.1                  0.439326501     0.869581937
7.111                0.442873987     0.867862573
7.122                0.446412145     0.866128018
7.133                0.449940996     0.864378311
7.144                0.453460562     0.862613493
7.155                0.456970864       0.8608336
7.166                0.460471921     0.859038669
7.177                0.463963754     0.857228734
7.188                0.467446379     0.855403829
7.199                0.470919814     0.853563986
7.21                 0.474384077     0.851709236
7.221                0.477839184     0.849839609
7.232                0.481285149     0.847955133
7.243                0.484721988     0.846055834
7.254                0.488149714      0.84414174
7.265                 0.49156834     0.842212873
7.276                0.494977878     0.840269258
7.287                0.498378341     0.838310917
7.298                0.501769739     0.836337872
7.309                0.505152082      0.83435014
7.32                  0.50852538     0.832347743
7.331                0.511889641     0.830330697
7.342                0.515244874     0.828299018
7.353                0.518591085     0.826252723
7.364                0.521928281     0.824191825
7.375                0.525256468     0.822116337
7.386                0.528575652     0.820026272
7.397                0.531885835     0.817921641
7.408                0.535187023     0.815802455
7.419                0.538479218      0.81366872
7.43                 0.541762423     0.811520447
7.441                0.545036638     0.809357642
7.452                0.548301866      0.80718031
7.463                0.551558106     0.804988457
7.474                0.554805357     0.802782086
7.485                0.558043618     0.800561201
7.496                0.561272888     0.798325803
7.507                0.564493164     0.796075893
7.518                0.567704443     0.793811471
7.529                 0.57090672     0.791532537
7.54                  0.57409999     0.789239087
7.551                 0.57728425      0.78693112
7.562                0.580459491     0.784608631
7.573                0.583625709     0.782271616
7.584                0.586782894     0.779920067
7.595                 0.58993104      0.77755398
7.606                0.593070137     0.775173345
7.617                0.596200176     0.772778155
7.628                0.599321146     0.770368399
7.639                0.602433036     0.767944067
7.65                 0.605535836     0.765505147
7.661                0.608629532     0.763051627
7.672                0.611714111     0.760583494
7.683                0.614789561     0.758100732
7.694                0.617855866     0.755603327
7.705                0.620913011     0.753091262
7.716                0.623960981     0.750564519
7.727                0.626999758     0.748023082
7.738                0.630029326      0.74546693
7.749                0.633049667     0.742896043
7.76                 0.636060762       0.7403104
7.771                0.639062592     0.737709979
7.782                0.642055136     0.735094757
7.793                0.645038374      0.73246471
7.804                0.648012284     0.729819812
7.815                0.650976843     0.727160038
7.826                0.653932029      0.72448536
7.837                0.656877818     0.721795751
7.848                0.659814184     0.719091182
7.859                0.662741104     0.716371621
7.87                  0.66565855     0.713637039
7.881                0.668566497     0.710887402
7.892                0.671464915     0.708122679
7.903                0.674353777     0.705342834
7.914                0.677233054     0.702547832
7.925                0.680102715     0.699737636
7.936                 0.68296273      0.69691221
7.947                0.685813067     0.694071514
7.958                0.688653693      0.69121551
7.969                0.691484576     0.688344155
7.98                 0.694305681     0.685457409
7.991                0.697116972     0.682555228
8.002                0.699918415     0.679637567
8.013                0.702709973     0.676704382
8.024                0.705491607     0.673755626
8.035                 0.70826328      0.67079125
8.046                0.711024952     0.667811207
8.057                0.713776582     0.664815446
8.068                 0.71651813     0.661803914
8.079                0.719249553     0.658776561
8.09                 0.721970808     0.655733331
8.101                 0.72468185     0.652674169
8.112                0.727382636     0.649599019
8.123                0.730073118     0.646507822
8.134                 0.73275325      0.64340052
8.145                0.735422983     0.640277051
8.156                0.738082268     0.637137354
8.167                0.740731055     0.633981365
8.178                0.743369293     0.630809019
8.189                0.745996928      0.62762025
8.2                  0.748613908      0.62441499
8.211                0.751220177     0.621193169
8.222                 0.75381568     0.617954716
8.233                0.756400359      0.61469956
8.244                0.758974157     0.611427626
8.255                0.761537014     0.608138838
8.266                0.764088868     0.604833119
8.277                0.766629658      0.60151039
8.288                 0.76915932      0.59817057
8.299                 0.77167779     0.594813578
8.31                 0.774185002     0.591439328
8.321                0.776680887     0.588047736
8.332                0.779165377     0.584638712
8.343                0.781638402     0.581212169
8.354                 0.78409989     0.577768013
8.365                0.786549767     0.574306152
8.376                0.788987959     0.570826491
8.387                0.791414389     0.567328932
8.398                0.793828978     0.563813375
8.409                0.796231648      0.56027972
8.42                 0.798622315     0.556727863
8.431                0.801000898     0.553157697
8.442                0.803367312     0.549569116
8.453                0.805721468     0.545962009
8.464                0.808063279     0.542336264
8.475                0.810392654     0.538691765
8.486                0.812709501     0.535028397
8.497                0.815013724     0.531346039
8.508                0.817305227      0.52764457
8.519                0.819583912     0.523923865
8.53                 0.821849677     0.520183797
8.541                0.824102419     0.516424236
8.552                0.826342032     0.512645051
8.563                0.828568409     0.508846105
8.574                 0.83078144     0.505027262
8.585                0.832981012     0.501188381
8.596                 0.83516701     0.497329318
8.607                0.837339315     0.493449926
8.618                0.839497807     0.489550057
8.629                0.841642364     0.485629557
8.64                 0.843772858     0.481688272
8.651                0.845889161     0.477726041
8.662                0.847991141     0.473742702
8.673                0.850078663     0.469738091
8.684                0.852151588     0.465712038
8.695                0.854209775     0.461664371
8.706                0.856253079     0.457594913
8.717                0.858281352     0.453503485
8.728                0.860294441     0.449389903
8.739                0.862292192      0.44525398
8.75                 0.864274444     0.441095525
8.761                0.866241035     0.436914342
8.772                0.868191798     0.432710233
8.783                0.870126561     0.428482993
8.794                0.872045148     0.424232416
8.805                 0.87394738      0.41995829
8.816                0.875833071     0.415660397
8.827                0.877702034     0.411338516
8.838                0.879554074     0.406992423
8.849                0.881388991     0.402621887
8.86                 0.883206583     0.398226671
8.871                0.885006639     0.393806537
8.882                0.886788945     0.389361239
8.893                0.888553281     0.384890526
8.904                 0.89029942     0.380394143
8.915                 0.89202713     0.375871828
8.926                0.893736172     0.371323313
8.937                0.895426303     0.366748328
8.948                0.897097269     0.362146593
8.959                0.898748814     0.357517824
8.97                 0.900380672     0.352861731
8.981                 0.90199257     0.348178017
8.992                0.903584227     0.343466378
9.003                0.905155357     0.338726507
9.014                0.906705662     0.333958085
9.025                0.908234838     0.329160791
9.036                0.909742572     0.324334294
9.047                0.911228543     0.319478258
9.058                0.912692417     0.314592337
9.069                0.914133855      0.30967618
9.08                 0.915552505     0.304729428
9.091                0.916948006     0.299751713
9.102                0.918319987     0.294742659
9.113                0.919668063     0.289701884
9.124                 0.92099184     0.284628995
9.135                0.922290913     0.279523592
9.146                0.923564861     0.274385266
9.157                0.924813254     0.269213598
9.168                0.926035647     0.264008162
9.179                0.927231581     0.258768521
9.19                 0.928400583     0.253494228
9.201                0.929542165     0.248184829
9.212                0.930655824     0.242839856
9.223                0.931741041     0.237458834
9.234                0.932797281     0.232041276
9.245                 0.93382399     0.226586685
9.256                0.934820597     0.221094552
9.267                0.935786514      0.21556436
9.278                 0.93672113     0.209995576
9.289                0.937623817     0.204387659
9.3                  0.938493926     0.198740055
9.311                0.939330785     0.193052197
9.322                0.940133699     0.187323508
9.333                 0.94090195     0.181553395
9.344                0.941634797     0.175741256
9.355                0.942331471     0.169886473
9.366                0.942991179     0.163988416
9.377                0.943613098     0.158046441
9.388                0.944196378     0.152059891
9.399                0.944740138     0.146028093
9.41                 0.945243465     0.139950362
9.421                0.945705416     0.133825997
9.432                0.946125013     0.127654283
9.443                 0.94650124     0.121434489
9.454                0.946833048      0.11516587
9.465                0.947119347     0.108847665
9.476                0.947359007     0.102479096
9.487                0.947550858    0.0960593725
9.498                0.947693685    0.0895876847
9.509                0.947786225    0.0830632081
9.52                 0.947827172    0.0764851018
9.531                0.947815167    0.0698525084
9.542                0.947748799    0.0631645537
9.553                0.947626603    0.0564203474
9.564                0.947447059    0.0496189821
9.575                0.947208584    0.0427595339
9.586                0.946909537    0.0358410623
9.597                0.946548208    0.0288626103
9.608                0.946122822    0.0218232043
9.619                0.945631531    0.0147218546
9.63                 0.945072414   0.00755755537
9.641                0.944443471   0.00032928504
9.652                0.943742621  -0.00696399328
9.663                0.942967697   -0.0143233314
9.674                0.942116444   -0.0217497956
9.685                0.941186511   -0.0292444658
9.696                 0.94017545   -0.0368084348
9.707                0.939080712   -0.0444428078
9.718                0.937899636    -0.052148701
9.729                0.936629451   -0.0599272403
9.74                 0.935267266   -0.0677795607
9.751                0.933810067   -0.0757068039
9.762                0.932254709   -0.0837101173
9.773                0.930597908   -0.0917906518
9.784                 0.92883624   -0.0999495594
9.795                0.926966129    -0.108187991
9.806                0.924983838    -0.116507094
9.817                0.922885469     -0.12490801
9.828                0.920666946    -0.133391867
9.839                0.918324011    -0.141959781
9.85                 0.915852215    -0.150612851
9.861                0.913246906    -0.159352151
9.872                0.910503222    -0.168178726
9.883                0.907616076     -0.17709359
9.894                 0.90458015    -0.186097711
9.905                 0.90138988    -0.195192015
9.916                0.898039445    -0.204377368
9.927                0.894522752    -0.213654574
9.938                0.890833427     -0.22302436
9.949                0.886964796     -0.23248737
9.96                 0.882909875     -0.24204415
9.971                0.878661351    -0.251695136
9.982                0.874211565    -0.261440638
9.993                0.869552502    -0.271280828
10.004               0.864675766    -0.281215718
10.015               0.859572565     -0.29124514
10.026               0.854233695    -0.301368731
10.037               0.848649516    -0.311585902
10.048               0.842809935    -0.321895815
10.059               0.836704386    -0.332297357
10.07                0.830321806    -0.342789103
10.081               0.823650619    -0.353369285
10.092               0.816678709    -0.364035755
10.103                 0.8093934    -0.374785939
10.114               0.801781439    -0.385616796
10.125               0.793828966    -0.396524765
10.136                 0.7855215    -0.407505708
10.147               0.776843917    -0.418554854
10.158               0.767780429     -0.42966673
10.169               0.758314566    -0.440835089
10.18                0.748429165    -0.452052832
10.191               0.738106351    -0.463311921
10.202                0.72732753    -0.474603282
10.213               0.716073383     -0.48591671
10.224               0.704323863     -0.49724075
10.235               0.692058203    -0.508562578
10.246               0.679254925    -0.519867874
10.257                0.66589186    -0.531140676
10.268               0.651946181    -0.542363228
10.279               0.637394444    -0.553515817
10.29                0.622212646    -0.564576596
10.301               0.606376295    -0.575521397
10.312               0.589860504     -0.58632353
10.323               0.572640102    -0.596953568
10.334                0.55468978    -0.607379131
10.345               0.535984248    -0.617564644
10.356               0.516498445    -0.627471103
10.367               0.496207773    -0.637055819
10.378               0.475088377    -0.646272167
10.389                0.45311747    -0.655069334
10.4                 0.430273715    -0.663392066
10.411               0.406537657     -0.67118043
10.422               0.381892223    -0.678369586
10.433               0.356323287    -0.684889595
10.444               0.329820305    -0.690665252
10.455               0.302377033    -0.695615969
10.466               0.273992313    -0.699655728
10.477               0.244670946    -0.702693101
10.488               0.214424641    -0.704631374
10.499               0.183273033    -0.705368786
10.51                0.151244774    -0.704798905
10.521                0.11837867    -0.702811178
10.532              0.0847248588    -0.699291652
10.543              0.0503459952    -0.694123922
10.554              0.0153184164    -0.687190307
10.565             -0.0202667488    -0.678373285
10.576             -0.0563025778    -0.667557196
10.587             -0.0926655117    -0.654630228
10.598              -0.129214734    -0.639486675
10.609               -0.16579184    -0.622029466
10.62               -0.202220864    -0.602172921
10.631              -0.238308743    -0.579845698
10.642              -0.273846279    -0.554993867
10.653              -0.308609665    -0.527584008
10.664               -0.34236262    -0.497606247
10.675              -0.374859143    -0.465077092
10.686              -0.405846915    -0.430041933
10.697              -0.435071276    -0.392577063
10.708              -0.462279735     -0.35279107
10.719              -0.487226885    -0.310825468
10.73               -0.509679586    -0.266854444
10.741              -0.529422225    -0.221083655
10.752              -0.546261858    -0.173748022
10.763              -0.560033004    -0.125108532
10.774              -0.570601884   -0.0754481296
10.785              -0.577869894   -0.0250667971
10.796              -0.581776145    0.0257239892
10.807              -0.582298938    0.0766072249
10.818              -0.579456114     0.127266524
10.829              -0.573304252     0.177392197
10.84                -0.56393678     0.226687023
10.851              -0.551481094     0.274871489
10.862              -0.536094854     0.321688313
10.873              -0.517961624     0.366906127
10.884              -0.497286083     0.410322216
10.895              -0.474289017       0.4517643
10.9                 -0.46313079      0.46990975
10.906               -0.44920229     0.491091367
10.917              -0.422263975     0.528193626
10.928              -0.393713817     0.562991676
10.939              -0.363789123     0.595435013
10.95               -0.332721183     0.625500003
10.961              -0.300732258     0.653187471
10.972              -0.268033157     0.678520025
10.983              -0.234821386     0.701539248
10.994              -0.201279843     0.722302861
11.005               -0.16757601     0.740881945
11.016              -0.133861578     0.757358288
11.027              -0.100272443     0.771821926
11.038             -0.0669290149      0.78436889
11.049              -0.033936767     0.795099197
11.06             -0.00138697382     0.804115088
11.071               0.030642419     0.811519509
11.082               0.062085836     0.817414829
11.093              0.0928890651     0.821901782
11.104               0.123008235     0.825078606
11.115               0.152408799     0.827040372
11.126               0.181064554     0.827878472
11.137               0.208956695     0.827680246
11.148               0.236072931     0.826528738
11.159               0.262406658     0.824502539
11.17                0.287956196     0.821675735
11.181               0.312724095     0.818117907
11.192               0.336716502     0.813894196
11.203               0.359942594     0.809065409
11.214               0.382414071     0.803688162
11.225               0.404144706     0.797815038
11.236               0.425149946     0.791494776
11.247               0.445446563     0.784772461
11.258                0.46505235     0.777689721
11.269               0.483985856     0.770284934
11.28                0.502266158     0.762593422
11.291               0.519912664     0.754647653
11.302               0.536944951     0.746477429
11.313               0.553382617     0.738110075
11.324               0.569245166     0.729570608
11.335               0.584551909     0.720881912
11.346               0.599321883     0.712064895
11.357               0.613573783     0.703138638
11.368               0.627325911     0.694120536
11.379                0.64059613     0.685026431
11.39                0.653401837     0.675870734
11.401               0.665759935     0.666666543
11.412                0.67768682     0.657425743
11.423               0.689198364     0.648159111
11.434               0.700309918     0.638876405
11.445               0.711036303     0.629586449
11.456               0.721391817     0.620297209
11.467               0.731390236     0.611015869
11.478               0.741044827     0.601748895
11.489               0.750368353     0.592502095
11.5                 0.759373084     0.583280679
11.511               0.768070813     0.574089306
11.522               0.776472866     0.564932135
11.533               0.784590116     0.555812867
11.544               0.792432999     0.546734785
11.555               0.800011526     0.537700791
11.566               0.807335301      0.52871344
11.577               0.814413532     0.519774971
11.588                0.82125505     0.510887333
11.599                0.82786832     0.502052212
11.61                0.834261455     0.493271058
11.621               0.840442234     0.484545102
11.632               0.846418112     0.475875377
11.643               0.852196233     0.467262739
11.654               0.857783446      0.45870788
11.665               0.863186315     0.450211344
11.676               0.868411133     0.441773544
11.687               0.873463931     0.433394771
11.698               0.878350492     0.425075207
11.709               0.883076359     0.416814936
11.72                0.887646848     0.408613953
11.731               0.892067058     0.400472175
11.742               0.896341877     0.392389444
11.753               0.900475998     0.384365542
11.764               0.904473918      0.37640019
11.775               0.908339955      0.36849306
11.786               0.912078255     0.360643779
11.797               0.915692793     0.352851932
11.808               0.919187388      0.34511707
11.819               0.922565707      0.33743871
11.83                0.925831271     0.329816346
11.841               0.928987462     0.322249444
11.852                0.93203753     0.314737451
11.863               0.934984596     0.307279797
11.874               0.937831664     0.299875897
11.885               0.940581617     0.292525153
11.896                0.94323723     0.285226957
11.907                0.94580117     0.277980692
11.918               0.948276006     0.270785737
11.929               0.950664204     0.263641463
11.94                0.952968143      0.25654724
11.951               0.955190109     0.249502435
11.962               0.957332304     0.242506417
11.973                0.95939685     0.235558552
11.984               0.961385787     0.228658208
11.995               0.963301084     0.221804759
12.006               0.965144637     0.214997577
12.017               0.966918273     0.208236042
12.028               0.968623753     0.201519537
12.039               0.970262777     0.194847449
12.05                0.971836982     0.188219172
12.061               0.973347948     0.181634106
12.072               0.974797201     0.175091657
12.083                0.97618621     0.168591239
12.094               0.977516397     0.162132271
12.105               0.978789132      0.15571418
12.116                0.98000574     0.149336403
12.127                 0.9811675     0.142998381
12.138               0.982275646     0.136699565
12.149               0.983331374     0.130439413
12.16                0.984335836     0.124217394
12.171               0.985290148     0.118032981
12.182               0.986195389     0.111885657
12.193               0.987052602     0.105774916
12.204               0.987862795    0.0997002555
12.215               0.988626945    0.0936611848
12.226               0.989345996    0.0876572201
12.237               0.990020863    0.0816878863
12.248               0.990652431    0.0757527164
12.259               0.991241557    0.0698512516
12.27                0.991789071    0.0639830414
12.281               0.992295777    0.0581476431
12.292               0.992762454    0.0523446224
12.303               0.993189857    0.0465735525
12.314               0.993578718    0.0408340148
12.325               0.993929747    0.0351255983
12.336               0.994243631    0.0294478998
12.347               0.994521037    0.0238005236
12.358               0.994762613    0.0181830814
12.369               0.994968986    0.0125951924
12.38                0.995140766    0.0070364831
12.391               0.995278544   0.00150658707
12.402               0.995382895  -0.00399485499
12.413               0.995454376  -0.00946819544
12.424               0.995493528   -0.0149137798
12.435               0.995500877   -0.0203319468
12.446               0.995476934   -0.0257230287
12.457               0.995422196    -0.031087351
12.468               0.995337145   -0.0364252329
12.479               0.995222249   -0.0417369875
12.49                0.995077966   -0.0470229214
12.501               0.994904739   -0.0522833354