! TOUCHSTONE file generated by CST MICROWAVE STUDIO
! Date and time: Mon Jan 20 16:13:09 2025
! Project name: unitcell.cst
! Parameters = {A=1.17063; AB_sqInv=0.729384; B=0.025494; C0=2.097; Cj=0.439552; Cp=0.075; Ct=0.513126; ImZ=-31.0167; L=10; L1=0.3; Lp=0.35; Lpad=0.75; M=1.199; R=5.41; ReZ=3.94597; Rt=3.94597; V=8; Vj=2.984; W=10; W1=-0.15; W2=-0.15; Wcoop=3.29; Wgap=1; Wline=1.42; Wpad=0.475; Wpadgap=0.35; Xpad1=1.6225; Xpad2=0.7975; Xpad3=1.6225; Xpad4=0.7975; Xvar_centre=1.21; f=0.01; f0=11; fmax=11.25; fmin=10.75; h=0.8; phi=0; th=0.035; theta=0}
! Header version: 2024
! Port assignment regex: !\s*Touchstone port\s*([0-9]+)\s*=\s*(CST MWS port|CST DES external port|CST DES block port)\s*(.+)\s* \(\"(.*)\"\)(\s*mode\s*([0-9]+))?.*
! Touchstone port assignment:
! Touchstone port 1 = CST MWS port Zmax ("") mode 1
! S-Parameters are not renormalized. Unphysical impedance of 0 will be written to the file.
# GHz S RI R 0
6                  -0.0381394384     0.926076264
6.011              -0.0326324106     0.927805388
6.022              -0.0271358384     0.929443577
6.033              -0.0216514472     0.930993332
6.044              -0.0161808145     0.932457118
6.055              -0.0107253785     0.933837359
6.066             -0.00528644581     0.935136435
6.077             0.000134800199     0.936356678
6.088              0.00553729238      0.93750037
6.099               0.0109200723      0.93856974
6.11                0.0162822831     0.939566964
6.121               0.0216231635      0.94049416
6.132               0.0269420405     0.941353391
6.143                0.032238324     0.942146663
6.154               0.0375115009     0.942875922
6.165               0.0427611295      0.94354306
6.176               0.0479868345     0.944149908
6.187               0.0531883017     0.944698241
6.198                0.058365274     0.945189778
6.209               0.0635175466      0.94562618
6.22                0.0686449631     0.946009054
6.231               0.0737474114     0.946339954
6.242               0.0788248204     0.946620377
6.253               0.0838771564      0.94685177
6.264               0.0889044198     0.947035529
6.275               0.0939066425     0.947172999
6.286               0.0988838847     0.947265477
6.297                0.103836233     0.947314212
6.308                0.108763796     0.947320408
6.319                0.113666706     0.947285222
6.33                 0.118545113      0.94720977
6.341                0.123399182     0.947095123
6.352                0.128229098     0.946942314
6.363                0.133035056     0.946752334
6.374                0.137817265     0.946526137
6.385                0.142575942      0.94626464
6.396                0.147311317     0.945968723
6.407                0.152023625     0.945639233
6.418                 0.15671311     0.945276982
6.429                 0.16138002     0.944882751
6.44                  0.16602461      0.94445729
6.451                0.170647137     0.944001319
6.462                0.175247861     0.943515528
6.473                0.179827048     0.943000581
6.484                 0.18438496     0.942457115
6.495                0.188921865     0.941885739
6.506                0.193438028      0.94128704
6.517                0.197933718     0.940661581
6.528                0.202409198       0.9400099
6.539                0.206864736     0.939332516
6.55                 0.211300593     0.938629923
6.561                0.215717032     0.937902599
6.572                0.220114313        0.937151
6.583                0.224492694     0.936375563
6.594                0.228852429     0.935576708
6.605                 0.23319377     0.934754837
6.616                0.237516967     0.933910336
6.627                0.241822264     0.933043575
6.638                0.246109905     0.932154908
6.649                0.250380128     0.931244674
6.66                 0.254633168       0.9303132
6.671                0.258869257     0.929360796
6.682                0.263088622     0.928387763
6.693                0.267291486     0.927394386
6.704                0.271478069     0.926380941
6.715                0.275648586     0.925347689
6.726                0.279803249     0.924294883
6.737                0.283942264     0.923222764
6.748                0.288065835     0.922131564
6.759                 0.29217416     0.921021503
6.77                 0.296267433     0.919892794
6.781                0.300345846     0.918745639
6.792                0.304409583     0.917580233
6.803                0.308458829     0.916396762
6.814                0.312493759     0.915195404
6.825                0.316514548      0.91397633
6.836                0.320521366     0.912739702
6.847                0.324514377     0.911485676
6.858                0.328493745     0.910214402
6.869                0.332459626     0.908926024
6.88                 0.336412173     0.907620676
6.891                0.340351538      0.90629849
6.902                0.344277865     0.904959592
6.913                0.348191297     0.903604099
6.924                0.352091971     0.902232127
6.935                0.355980024     0.900843784
6.946                0.359855585     0.899439174
6.957                0.363718782     0.898018398
6.968                0.367569738     0.896581549
6.979                0.371408576     0.895128719
6.99                  0.37523541     0.893659993
7.001                0.379050355     0.892175455
7.012                0.382853521     0.890675183
7.023                0.386645014     0.889159251
7.034                 0.39042494     0.887627732
7.045                0.394193397     0.886080693
7.056                0.397950484     0.884518199
7.067                0.401696296     0.882940311
7.078                0.405430923     0.881347088
7.089                0.409154454     0.879738586
7.1                  0.412866975     0.878114857
7.111                0.416568568     0.876475951
7.122                0.420259315     0.874821916
7.133                0.423939291     0.873152797
7.144                0.427608571     0.871468637
7.155                0.431267229     0.869769475
7.166                0.434915332      0.86805535
7.177                0.438552949     0.866326297
7.188                0.442180143     0.864582351
7.199                0.445796977     0.862823543
7.21                  0.44940351     0.861049903
7.221                0.452999799     0.859261459
7.232                  0.4565859     0.857458238
7.243                0.460161866     0.855640263
7.254                0.463727746     0.853807557
7.265                0.467283591     0.851960143
7.276                0.470829445     0.850098038
7.287                0.474365353     0.848221262
7.298                0.477891358     0.846329831
7.309                  0.4814075     0.844423761
7.32                 0.484913817     0.842503065
7.331                0.488410346     0.840567755
7.342                0.491897121     0.838617844
7.353                0.495374174      0.83665334
7.364                0.498841538     0.834674254
7.375                 0.50229924     0.832680592
7.386                0.505747309     0.830672361
7.397                 0.50918577     0.828649567
7.408                0.512614648     0.826612214
7.419                0.516033964     0.824560304
7.43                  0.51944374     0.822493841
7.441                0.522843994     0.820412826
7.452                0.526234745     0.818317259
7.463                0.529616009     0.816207139
7.474                  0.5329878     0.814082465
7.485                0.536350132     0.811943234
7.496                0.539703017     0.809789443
7.507                0.543046465     0.807621088
7.518                0.546380485     0.805438164
7.529                0.549705085     0.803240665
7.54                 0.553020271     0.801028584
7.551                0.556326049     0.798801914
7.562                0.559622422     0.796560647
7.573                0.562909392     0.794304772
7.584                0.566186961     0.792034282
7.595                 0.56945513     0.789749165
7.606                0.572713896      0.78744941
7.617                0.575963258     0.785135004
7.628                0.579203212     0.782805935
7.639                0.582433754      0.78046219
7.65                 0.585654877     0.778103755
7.661                0.588866575     0.775730614
7.672                 0.59206884     0.773342751
7.683                0.595261663     0.770940152
7.694                0.598445034     0.768522798
7.705                0.601618941     0.766090671
7.716                0.604783373     0.763643755
7.727                0.607938316     0.761182028
7.738                0.611083755     0.758705473
7.749                0.614219677     0.756214067
7.76                 0.617346064      0.75370779
7.771                0.620462899     0.751186621
7.782                0.623570165     0.748650536
7.793                0.626667841     0.746099513
7.804                0.629755908     0.743533527
7.815                0.632834346     0.740952554
7.826                0.635903131     0.738356568
7.837                0.638962241     0.735745544
7.848                0.642011653     0.733119454
7.859                0.645051342     0.730478272
7.87                 0.648081281     0.727821968
7.881                0.651101446     0.725150514
7.892                0.654111807     0.722463881
7.903                0.657112338     0.719762037
7.914                0.660103008     0.717044951
7.925                0.663083788     0.714312592
7.936                0.666054646     0.711564926
7.947                0.669015552     0.708801921
7.958                0.671966472     0.706023541
7.969                0.674907374     0.703229751
7.98                 0.677838221     0.700420516
7.991                 0.68075898     0.697595799
8.002                0.683669613     0.694755561
8.013                0.686570085     0.691899764
8.024                0.689460356      0.68902837
8.035                0.692340389     0.686141336
8.046                0.695210143     0.683238623
8.057                0.698069578     0.680320188
8.068                0.700918653     0.677385988
8.079                0.703757325     0.674435978
8.09                 0.706585551     0.671470115
8.101                0.709403287     0.668488351
8.112                0.712210487      0.66549064
8.123                0.715007107     0.662476933
8.134                0.717793098     0.659447182
8.145                0.720568413     0.656401337
8.156                0.723333003     0.653339345
8.167                0.726086819     0.650261156
8.178                 0.72882981     0.647166714
8.189                0.731561923     0.644055967
8.2                  0.734283108     0.640928857
8.211                0.736993309     0.637785328
8.222                0.739692472     0.634625322
8.233                0.742380542     0.631448779
8.244                0.745057461     0.628255639
8.255                0.747723173     0.625045839
8.266                0.750377617     0.621819316
8.277                0.753020735     0.618576006
8.288                0.755652465     0.615315842
8.299                0.758272744     0.612038758
8.31                 0.760881511     0.608744683
8.321                0.763478699     0.605433548
8.332                0.766064244     0.602105282
8.343                0.768638078      0.59875981
8.354                0.771200134     0.595397057
8.365                0.773750342     0.592016948
8.376                0.776288631     0.588619404
8.387                0.778814929     0.585204346
8.398                0.781329164     0.581771691
8.409                 0.78383126     0.578321357
8.42                 0.786321142     0.574853259
8.431                0.788798731     0.571367309
8.442                0.791263949      0.56786342
8.453                0.793716716     0.564341501
8.464                0.796156949      0.56080146
8.475                0.798584565     0.557243202
8.486                 0.80099948      0.55366663
8.497                0.803401605     0.550071647
8.508                0.805790853     0.546458152
8.519                0.808167133     0.542826043
8.53                 0.810530354     0.539175213
8.541                0.812880421     0.535505557
8.552                 0.81521724     0.531816965
8.563                0.817540712     0.528109325
8.574                0.819850739     0.524382524
8.585                0.822147218     0.520636444
8.596                0.824430047     0.516870967
8.607                0.826699119     0.513085971
8.618                0.828954327     0.509281332
8.629                0.831195561     0.505456923
8.64                 0.833422708     0.501612615
8.651                0.835635654     0.497748275
8.662                0.837834281     0.493863769
8.673                 0.84001847     0.489958957
8.684                0.842188099     0.486033699
8.695                0.844343043     0.482087852
8.706                0.846483174     0.478121267
8.717                0.848608362     0.474133794
8.728                0.850718473      0.47012528
8.739                0.852813372     0.466095568
8.75                  0.85489292     0.462044497
8.761                0.856956972     0.457971904
8.772                0.859005385      0.45387762
8.783                0.861038009     0.449761476
8.794                0.863054692     0.445623295
8.805                0.865055277     0.441462901
8.816                0.867039605     0.437280109
8.827                0.869007513     0.433074734
8.838                0.870958832     0.428846586
8.849                0.872893392     0.424595468
8.86                 0.874811017     0.420321183
8.871                0.876711528     0.416023527
8.882                0.878594739     0.411702292
8.893                0.880460463     0.407357266
8.904                0.882308506     0.402988232
8.915                0.884138669     0.398594968
8.926                0.885950748     0.394177246
8.937                0.887744536     0.389734836
8.948                0.889519819       0.3852675
8.959                0.891276376     0.380774997
8.97                 0.893013983     0.376257078
8.981                0.894732408     0.371713491
8.992                0.896431414     0.367143977
9.003                0.898110758     0.362548271
9.014                0.899770189     0.357926104
9.025                 0.90140945     0.353277198
9.036                0.903028277     0.348601273
9.047                  0.9046264     0.343898037
9.058                0.906203539     0.339167198
9.069                0.907759407     0.334408451
9.08                 0.909293711     0.329621489
9.091                0.910806147     0.324805997
9.102                0.912296403     0.319961651
9.113                 0.91376416     0.315088121
9.124                0.915209087      0.31018507
9.135                0.916630845     0.305252154
9.146                0.918029085     0.300289018
9.157                0.919403447     0.295295303
9.168                0.920753561      0.29027064
9.179                0.922079045     0.285214651
9.19                 0.923379506      0.28012695
9.201                 0.92465454     0.275007143
9.212                0.925903729     0.269854827
9.223                0.927126643     0.264669589
9.234                0.928322838     0.259451006
9.245                0.929491858     0.254198648
9.256                 0.93063323     0.248912073
9.267                0.931746468      0.24359083
9.278                 0.93283107     0.238234456
9.289                0.933886518     0.232842481
9.3                  0.934912276     0.227414421
9.311                0.935907792     0.221949782
9.322                0.936872495      0.21644806
9.333                0.937805796     0.210908738
9.344                0.938707087     0.205331288
9.355                0.939575737     0.199715171
9.366                0.940411097     0.194059834
9.377                0.941212493     0.188364712
9.388                0.941979231     0.182629229
9.399                0.942710591     0.176852793
9.41                 0.943405828     0.171034803
9.421                0.944064173     0.165174639
9.432                0.944684828     0.159271672
9.443                0.945266969     0.153325257
9.454                 0.94580974     0.147334735
9.465                0.946312256     0.141299432
9.476                0.946773601      0.13521866
9.487                0.947192824     0.129091715
9.498                0.947568941     0.122917878
9.509                 0.94790093     0.116696414
9.52                 0.948187732     0.110426575
9.531                 0.94842825     0.104107592
9.542                0.948621345    0.0977386843
9.553                0.948765833     0.091319052
9.564                0.948860489    0.0848478795
9.575                0.948904038    0.0783243342
9.586                0.948895158    0.0717475666
9.597                0.948832475    0.0651167097
9.608                0.948714561    0.0584308796
9.619                0.948539933    0.0516891747
9.63                 0.948307049    0.0448906761
9.641                0.948014306    0.0380344476
9.652                0.947660036    0.0311195351
9.663                0.947242507    0.0241449676
9.674                0.946759914    0.0171097564
9.685                0.946210378    0.0100128959
9.696                0.945591946   0.00285336335
9.707                0.944902582  -0.00436988037
9.718                0.944140167   -0.0116578908
9.729                0.943302492   -0.0190117394
9.74                 0.942387256   -0.0264325128
9.751                0.941392061   -0.0339213122
9.762                0.940314408   -0.0414792529
9.773                0.939151689   -0.0491074631
9.784                0.937901185   -0.0568070828
9.795                0.936560058   -0.0645792631
9.806                0.935125349   -0.0724251643
9.817                0.933593967   -0.0803459546
9.828                0.931962685   -0.0883428083
9.839                0.930228134   -0.0964169039
9.85                 0.928386795    -0.104569421
9.861                0.926434991    -0.112801541
9.872                0.924368878    -0.121114437
9.883                0.922184439     -0.12950928
9.894                0.919877476    -0.137987229
9.905                0.917443596    -0.146549427
9.916                0.914878204       -0.155197
9.927                0.912176496    -0.163931049
9.938                0.909333442    -0.172752646
9.949                0.906343778    -0.181662827
9.96                 0.903201995    -0.190662585
9.971                0.899902322    -0.199752863
9.982                 0.89643872    -0.208934545
9.993                0.892804859    -0.218208446
10.004               0.888994114    -0.227575304
10.015               0.884999538    -0.237035764
10.026               0.880813857    -0.246590368
10.037               0.876429446    -0.256239543
10.048               0.871838315     -0.26598358
10.059                0.86703209    -0.275822619
10.07                0.862001993    -0.285756633
10.081               0.856738823      -0.2957854
10.092               0.851232939    -0.305908486
10.103               0.845474233    -0.316125215
10.114               0.839452113    -0.326434642
10.125               0.833155477    -0.336835524
10.136               0.826572694    -0.347326278
10.147               0.819691578    -0.357904951
10.158               0.812499367    -0.368569175
10.169               0.804982694    -0.379316117
10.18                0.797127571    -0.390142434
10.191               0.788919358    -0.401044213
10.202               0.780342747    -0.412016911
10.213               0.771381734    -0.423055289
10.224               0.762019601    -0.434153332
10.235               0.752238899    -0.445304178
10.246               0.742021428     -0.45650002
10.257               0.731348224    -0.467732013
10.268               0.720199552    -0.478990167
10.279               0.708554896    -0.490263233
10.29                0.696392966    -0.501538576
10.301               0.683691701    -0.512802038
10.312               0.670428285    -0.524037788
10.323               0.656579179    -0.535228167
10.334               0.642120152    -0.546353507
10.345               0.627026343    -0.557391952
10.356               0.611272321    -0.568319252
10.367               0.594832184    -0.579108554
10.378               0.577679664     -0.58973017
10.389               0.559788272    -0.600151343
10.4                 0.541131464    -0.610335988
10.411               0.521682846    -0.620244434
10.422               0.501416419    -0.629833147
10.433               0.480306869    -0.639054455
10.444               0.458329905    -0.647856266
10.455               0.435462657    -0.656181787
10.466               0.411684135    -0.663969257
10.477               0.386975755    -0.671151689
10.488               0.361321945    -0.677656641
10.499               0.334710823    -0.683406025
10.51                0.307134968    -0.688315961
10.521               0.278592276    -0.692296702
10.532               0.249086903    -0.695252638
10.543               0.218630304     -0.69708241
10.554               0.187242348    -0.697679151
10.565               0.154952523    -0.696930875
10.576               0.121801186    -0.694721061
10.587              0.0878408748    -0.690929434
10.598              0.0531376241    -0.685432992
10.609              0.0177722665      -0.6781073
10.62              -0.0181583293    -0.668828068
10.631             -0.0545401387    -0.657473047
10.642             -0.0912410421    -0.643924237
10.653              -0.128110139    -0.628070415
10.664              -0.164977394    -0.609809962
10.675              -0.201653703    -0.589053963
10.686              -0.237931453    -0.565729506
10.697              -0.273585674    -0.539783127
10.708              -0.308375831    -0.511184266
10.719              -0.342048326    -0.479928637
10.73               -0.374339716    -0.446041337
10.741              -0.404980658    -0.409579543
10.752              -0.433700511    -0.370634624
10.763               -0.46023252    -0.329333482
10.774              -0.484319425    -0.285838993
10.785              -0.505719317    -0.240349397
10.796              -0.524211516    -0.193096571
10.807              -0.539602229    -0.144343149
10.818              -0.551729713    -0.094378523
10.829              -0.560468704   -0.0435138393
10.84               -0.565733874   0.00792386398
10.851              -0.567482152    0.0595981352
10.862              -0.565713757     0.111169948
10.873              -0.560471925     0.162304611
10.884               -0.55184133     0.212678444
10.895              -0.539945307     0.261984967
10.9                -0.533500153     0.283966464
10.906              -0.524942026     0.309940337
10.917              -0.507019837     0.356287868
10.928               -0.48639202     0.400801499
10.939              -0.463291184     0.443288148
10.95               -0.437963584     0.483588969
10.961              -0.410663561     0.521579552
10.972              -0.381648315     0.557169192
10.983              -0.351173147     0.590299343
10.994              -0.319487306     0.620941438
11.005              -0.286830472     0.649094213
11.016              -0.253429935     0.674780718
11.027              -0.219498435     0.698045148
11.038              -0.185232642     0.718949628
11.049              -0.150812212     0.737571063
11.06               -0.116399359     0.753998136
11.071             -0.0821388587     0.768328513
11.082              -0.048158403     0.780666308
11.093             -0.0145692471     0.791119819
11.104               0.018532938     0.799799558
11.115              0.0510670616     0.806816562
11.126              0.0829655125     0.812280976
11.137                0.11417301       0.8163009
11.148               0.144645438     0.818981452
11.159               0.174348701     0.820424058
11.17                0.203257615     0.820725914
11.181               0.231354852     0.819979609
11.192               0.258629953     0.818272881
11.203               0.285078418      0.81568849
11.214               0.310700861     0.812304179
11.225               0.335502251     0.808192712
11.236               0.359491227     0.803421969
11.247               0.382679486     0.798055089
11.258               0.405081233     0.792150648
11.269               0.426712704     0.785762853
11.28                0.447591745     0.778941764
11.291               0.467737445     0.771733519
11.302               0.487169816      0.76418056
11.313               0.505909521     0.756321869
11.324               0.523977639      0.74819319
11.335               0.541395468     0.739827251
11.346               0.558184353      0.73125398
11.357               0.574365551     0.722500706
11.368               0.589960108     0.713592355
11.379               0.604988771     0.704551632
11.39                0.619471902     0.695399198
11.401               0.633429423     0.686153826
11.412               0.646880766     0.676832561
11.423                0.65984483     0.667450854
11.434               0.672339966     0.658022698
11.445               0.684383945     0.648560745
11.456               0.695993957     0.639076427
11.467               0.707186599     0.629580051
11.478               0.717977878       0.6200809
11.489               0.728383212     0.610587322
11.5                 0.738417438     0.601106809
11.511               0.748094818     0.591646071
11.522               0.757429058      0.58221111
11.533               0.766433313     0.572807275
11.544               0.775120207     0.563439327
11.555               0.783501848     0.554111488
11.566                0.79158984     0.544827488
11.577               0.799395304     0.535590615
11.588               0.806928897     0.526403749
11.599               0.814200822     0.517269403
11.61                 0.82122085     0.508189756
11.621               0.827998336     0.499166683
11.632               0.834542237     0.490201785
11.643               0.840861125     0.481296411
11.654               0.846963205     0.472451688
11.665                0.85285633     0.463668535
11.676               0.858548019     0.454947689
11.687               0.864045465     0.446289719
11.698               0.869355555     0.437695043
11.709               0.874484882     0.429163944
11.72                0.879439757     0.420696583
11.731               0.884226223      0.41229301
11.742               0.888850066     0.403953179
11.753               0.893316826     0.395676953
11.764               0.897631811     0.387464119
11.775               0.901800103     0.379314391
11.786               0.905826575     0.371227422
11.797               0.909715892     0.363202809
11.808               0.913472527       0.3552401
11.819               0.917100769     0.347338801
11.83                0.920604727     0.339498377
11.841               0.923988344     0.331718265
11.852               0.927255399     0.323997867
11.863                0.93040952     0.316336567
11.874               0.933454187     0.308733722
11.885               0.936392739     0.301188675
11.896               0.939228382     0.293700754
11.907               0.941964195     0.286269272
11.918               0.944603132     0.278893537
11.929               0.947148033     0.271572845
11.94                0.949601625      0.26430649
11.951               0.951966531     0.257093761
11.962               0.954245269     0.249933944
11.973               0.956440261     0.242826326
11.984               0.958553837     0.235770194
11.995               0.960588237     0.228764837
12.006               0.962545617     0.221809549
12.017                0.96442805     0.214903623
12.028               0.966237532     0.208046363
12.039               0.967975985     0.201237073
12.05                 0.96964526     0.194475066
12.061               0.971247139     0.187759662
12.072               0.972783339     0.181090187
12.083               0.974255514     0.174465976
12.094               0.975665259      0.16788637
12.105               0.977014111      0.16135072
12.116               0.978303552     0.154858385
12.127               0.979535012     0.148408735
12.138                0.98070987     0.142001145
12.149               0.981829455     0.135635004
12.16                0.982895054     0.129309707
12.171               0.983907904     0.123024659
12.182               0.984869203     0.116779276
12.193               0.985780107     0.110572983
12.204               0.986641731     0.104405214
12.215               0.987455156     0.098275413
12.226               0.988221423    0.0921830347
12.237               0.988941539     0.086127542
12.248               0.989616479    0.0801084081
12.259               0.990247185    0.0741251156
12.27                0.990834568    0.0681771564
12.281               0.991379508    0.0622640322
12.292               0.991882859    0.0563852537
12.303               0.992345447    0.0505403407
12.314               0.992768069    0.0447288226
12.325               0.993151499    0.0389502373
12.336               0.993496487    0.0332041319
12.347               0.993803757    0.0274900621
12.358               0.994074014    0.0218075926
12.369               0.994307937    0.0161562962
12.38                0.994506186    0.0105357544
12.391               0.994669403   0.00494555696
12.402               0.994798206 -0.000614698236
12.413               0.994893198  -0.00614540527
12.424               0.994954963   -0.0116469503
12.435               0.994984065   -0.0171197118
12.446               0.994981056   -0.0225640604
12.457               0.994946467   -0.0279803595
12.468               0.994880817   -0.0333689649
12.479               0.994784607   -0.0387302253
12.49                0.994658326   -0.0440644821
12.501               0.994502448     -0.04937207