! TOUCHSTONE file generated by CST MICROWAVE STUDIO
! Date and time: Mon Jan 20 16:13:09 2025
! Project name: unitcell.cst
! Parameters = {A=1.18942; AB_sqInv=0.706531; B=0.025494; C0=2.097; Cj=0.395948; Cp=0.075; Ct=0.46981; ImZ=-33.8765; L=10; L1=0.3; Lp=0.35; Lpad=0.75; M=1.199; R=5.41; ReZ=3.82233; Rt=3.82233; V=9; Vj=2.984; W=10; W1=-0.15; W2=-0.15; Wcoop=3.29; Wgap=1; Wline=1.42; Wpad=0.475; Wpadgap=0.35; Xpad1=1.6225; Xpad2=0.7975; Xpad3=1.6225; Xpad4=0.7975; Xvar_centre=1.21; f=0.01; f0=11; fmax=11.25; fmin=10.75; h=0.8; phi=0; th=0.035; theta=0}
! Header version: 2024
! Port assignment regex: !\s*Touchstone port\s*([0-9]+)\s*=\s*(CST MWS port|CST DES external port|CST DES block port)\s*(.+)\s* \(\"(.*)\"\)(\s*mode\s*([0-9]+))?.*
! Touchstone port assignment:
! Touchstone port 1 = CST MWS port Zmax ("") mode 1
! S-Parameters are not renormalized. Unphysical impedance of 0 will be written to the file.
# GHz S RI R 0
6                   -0.132603007     0.879118167
6.011               -0.125806752      0.88324652
6.022               -0.119012997     0.887168765
6.033               -0.112227736     0.890892693
6.044               -0.105456329     0.894425925
6.055              -0.0987035513     0.897775902
6.066              -0.0919736427     0.900949859
6.077              -0.0852703492     0.903954817
6.088              -0.0785969657     0.906797577
6.099              -0.0719563749     0.909484705
6.11               -0.0653510831     0.912022536
6.121              -0.0587832544     0.914417171
6.132              -0.0522547416     0.916674474
6.143              -0.0457671154     0.918800077
6.154               -0.039321691     0.920799381
6.165              -0.0329195526     0.922677565
6.176               -0.026561576     0.924439581
6.187              -0.0202484497     0.926090171
6.198              -0.0139806937     0.927633866
6.209             -0.00775867662     0.929074992
6.22              -0.00158263226     0.930417683
6.231              0.00454732635      0.93166588
6.242               0.0106311935     0.932823344
6.253               0.0166690588     0.933893661
6.264               0.0226610962     0.934880247
6.275                0.028607554     0.935786359
6.286               0.0345087458     0.936615098
6.297               0.0403650423     0.937369417
6.308               0.0461768638     0.938052129
6.319               0.0519446739     0.938665911
6.33                0.0576689726     0.939213314
6.341               0.0633502919     0.939696762
6.352               0.0689891898     0.940118565
6.363               0.0745862466      0.94048092
6.374               0.0801420606      0.94078592
6.385               0.0856572447     0.941035554
6.396               0.0911324228     0.941231716
6.407               0.0965682274     0.941376211
6.418                0.101965297     0.941470753
6.429                0.107324273     0.941516976
6.44                 0.112645799     0.941516433
6.451                0.117930517     0.941470605
6.462                 0.12317907     0.941380901
6.473                0.128392094     0.941248661
6.484                0.133570223     0.941075162
6.495                0.138714085     0.940861621
6.506                  0.1438243     0.940609194
6.517                0.148901481     0.940318986
6.528                0.153946235     0.939992047
6.539                0.158959158     0.939629377
6.55                 0.163940837      0.93923193
6.561                0.168891849     0.938800615
6.572                0.173812763     0.938336299
6.583                0.178704136     0.937839805
6.594                0.183566514     0.937311923
6.605                0.188400433     0.936753401
6.616                0.193206419     0.936164955
6.627                0.197984984     0.935547268
6.638                0.202736633      0.93490099
6.649                0.207461857     0.934226742
6.66                 0.212161136     0.933525117
6.671                0.216834941      0.93279668
6.682                0.221483731     0.932041971
6.693                0.226107952     0.931261503
6.704                0.230708044      0.93045577
6.715                0.235284431     0.929625239
6.726                0.239837529      0.92877036
6.737                0.244367746      0.92789156
6.748                0.248875474     0.926989248
6.759                  0.2533611     0.926063815
6.77                 0.257824999     0.925115633
6.781                0.262267536     0.924145059
6.792                0.266689067     0.923152434
6.803                0.271089938     0.922138084
6.814                0.275470487     0.921102319
6.825                0.279831041     0.920045437
6.836                0.284171919     0.918967723
6.847                0.288493432     0.917869448
6.858                0.292795881     0.916750873
6.869                0.297079561     0.915612247
6.88                 0.301344757     0.914453806
6.891                0.305591746      0.91327578
6.902                0.309820797     0.912078385
6.913                0.314032173      0.91086183
6.924                0.318226128     0.909626314
6.935                 0.32240291     0.908372028
6.946                0.326562758     0.907099154
6.957                0.330705907     0.905807867
6.968                0.334832582     0.904498335
6.979                0.338943003     0.903170716
6.99                 0.343037384     0.901825165
7.001                0.347115932     0.900461827
7.012                0.351178848     0.899080843
7.023                0.355226327     0.897682348
7.034                0.359258559     0.896266469
7.045                0.363275726      0.89483333
7.056                0.367278007     0.893383048
7.067                0.371265575     0.891915737
7.078                0.375238596     0.890431504
7.089                0.379197233     0.888930452
7.1                  0.383141644      0.88741268
7.111                 0.38707198     0.885878283
7.122                0.390988389     0.884327351
7.133                0.394891014     0.882759971
7.144                0.398779993     0.881176226
7.155                 0.40265546     0.879576194
7.166                0.406517546     0.877959952
7.177                0.410366374     0.876327572
7.188                0.414202067     0.874679124
7.199                0.418024743     0.873014673
7.21                 0.421834514     0.871334283
7.221                 0.42563149     0.869638015
7.232                0.429415778     0.867925926
7.243                 0.43318748     0.866198071
7.254                0.436946694     0.864454503
7.265                0.440693517     0.862695272
7.276                 0.44442804     0.860920427
7.287                0.448150353     0.859130012
7.298                0.451860541     0.857324071
7.309                0.455558687     0.855502647
7.32                  0.45924487     0.853665777
7.331                0.462919167     0.851813499
7.342                0.466581652      0.84994585
7.353                0.470232397     0.848062863
7.364                0.473871468      0.84616457
7.375                0.477498932     0.844251002
7.386                0.481114853     0.842322186
7.397                0.484719289     0.840378151
7.408                  0.4883123     0.838418922
7.419                0.491893941     0.836444523
7.43                 0.495464265     0.834454977
7.441                0.499023322     0.832450305
7.452                0.502571163     0.830430528
7.463                0.506107832     0.828395663
7.474                0.509633375     0.826345729
7.485                0.513147833     0.824280742
7.496                0.516651246     0.822200716
7.507                0.520143653     0.820105666
7.518                 0.52362509     0.817995604
7.529                0.527095591     0.815870541
7.54                 0.530555189     0.813730489
7.551                0.534003913     0.811575457
7.562                0.537441792     0.809405452
7.573                0.540868854     0.807220483
7.584                0.544285124     0.805020556
7.595                0.547690625     0.802805676
7.606                0.551085379     0.800575848
7.617                0.554469406     0.798331076
7.628                0.557842725     0.796071361
7.639                0.561205354     0.793796706
7.65                 0.564557307     0.791507111
7.661                0.567898599     0.789202577
7.672                0.571229242     0.786883103
7.683                0.574549249     0.784548686
7.694                0.577858628     0.782199325
7.705                0.581157388     0.779835015
7.716                0.584445536     0.777455753
7.727                0.587723078     0.775061534
7.738                0.590990018     0.772652351
7.749                 0.59424636     0.770228198
7.76                 0.597492105     0.767789067
7.771                0.600727254     0.765334951
7.782                0.603951807     0.762865839
7.793                0.607165761     0.760381723
7.804                0.610369114     0.757882592
7.815                0.613561861     0.755368434
7.826                0.616743998     0.752839237
7.837                0.619915518     0.750294987
7.848                0.623076412     0.747735672
7.859                0.626226674     0.745161277
7.87                 0.629366292     0.742571786
7.881                0.632495257     0.739967183
7.892                0.635613556     0.737347452
7.903                0.638721176     0.734712573
7.914                0.641818104      0.73206253
7.925                0.644904323     0.729397303
7.936                0.647979819     0.726716871
7.947                0.651044575     0.724021214
7.958                0.654098571     0.721310309
7.969                 0.65714179     0.718584135
7.98                  0.66017421     0.715842668
7.991                0.663195812     0.713085882
8.002                0.666206573     0.710313755
8.013                0.669206469     0.707526258
8.024                0.672195478     0.704723366
8.035                0.675173574      0.70190505
8.046                0.678140732     0.699071283
8.057                0.681096924     0.696222033
8.068                0.684042122     0.693357272
8.079                0.686976299     0.690476967
8.09                 0.689899424     0.687581086
8.101                0.692811466     0.684669596
8.112                0.695712394     0.681742462
8.123                0.698602176      0.67879965
8.134                0.701480778     0.675841123
8.145                0.704348165     0.672866843
8.156                0.707204302     0.669876772
8.167                0.710049152     0.666870871
8.178                0.712882678       0.6638491
8.189                0.715704842     0.660811417
8.2                  0.718515605     0.657757779
8.211                0.721314925     0.654688142
8.222                0.724102762     0.651602463
8.233                0.726879073     0.648500693
8.244                0.729643816     0.645382787
8.255                0.732396944     0.642248696
8.266                0.735138414      0.63909837
8.277                0.737868178     0.635931759
8.288                0.740586189     0.632748809
8.299                0.743292398     0.629549468
8.31                 0.745986756     0.626333681
8.321                0.748669212     0.623101391
8.332                0.751339714     0.619852542
8.343                0.753998208     0.616587073
8.354                0.756644642     0.613304926
8.365                0.759278958     0.610006037
8.376                0.761901102     0.606690344
8.387                0.764511014     0.603357782
8.398                0.767108636     0.600008284
8.409                0.769693908     0.596641783
8.42                 0.772266769     0.593258209
8.431                0.774827155     0.589857491
8.442                0.777375003     0.586439556
8.453                0.779910246     0.583004329
8.464                0.782432819     0.579551735
8.475                0.784942653     0.576081695
8.486                0.787439678     0.572594129
8.497                0.789923824     0.569088957
8.508                0.792395017     0.565566093
8.519                0.794853184     0.562025452
8.53                 0.797298249     0.558466948
8.541                0.799730135      0.55489049
8.552                0.802148764     0.551295987
8.563                0.804554053     0.547683346
8.574                0.806945922     0.544052469
8.585                0.809324286     0.540403261
8.596                 0.81168906      0.53673562
8.607                0.814040156     0.533049443
8.618                0.816377485     0.529344627
8.629                0.818700954     0.525621063
8.64                 0.821010472     0.521878643
8.651                0.823305942     0.518117253
8.662                0.825587267      0.51433678
8.673                0.827854348     0.510537106
8.684                0.830107082     0.506718111
8.695                0.832345366     0.502879672
8.706                0.834569093     0.499021665
8.717                0.836778155     0.495143961
8.728                 0.83897244     0.491246428
8.739                0.841151835     0.487328933
8.75                 0.843316224     0.483391339
8.761                0.845465486     0.479433505
8.772                0.847599502     0.475455288
8.783                0.849718146     0.471456542
8.794                0.851821292     0.467437116
8.805                0.853908808     0.463396858
8.816                0.855980561      0.45933561
8.827                0.858036415     0.455253212
8.838                0.860076229     0.451149501
8.849                0.862099861     0.447024308
8.86                 0.864107165     0.442877463
8.871                0.866097988      0.43870879
8.882                0.868072179      0.43451811
8.893                0.870029578      0.43030524
8.904                0.871970025     0.426069993
8.915                0.873893354     0.421812176
8.926                0.875799395     0.417531594
8.937                0.877687973     0.413228047
8.948                0.879558911     0.408901329
8.959                0.881412024     0.404551231
8.97                 0.883247126     0.400177539
8.981                0.885064023     0.395780033
8.992                0.886862518      0.39135849
9.003                0.888642408     0.386912679
9.014                0.890403483     0.382442368
9.025                0.892145531     0.377947315
9.036                0.893868332     0.373427276
9.047                0.895571659        0.368882
9.058                0.897255281      0.36431123
9.069                 0.89891896     0.359714704
9.08                 0.900562451     0.355092154
9.091                0.902185502     0.350443304
9.102                0.903787856     0.345767875
9.113                0.905369245     0.341065578
9.124                0.906929396      0.33633612
9.135                0.908468029     0.331579201
9.146                0.909984854     0.326794513
9.157                0.911479573     0.321981741
9.168                0.912951879     0.317140564
9.179                0.914401458     0.312270653
9.19                 0.915827984      0.30737167
9.201                0.917231123     0.302443272
9.212                0.918610531     0.297485105
9.223                0.919965852      0.29249681
9.234                0.921296722     0.287478017
9.245                0.922602763     0.282428349
9.256                0.923883587      0.27734742
9.267                0.925138794     0.272234835
9.278                0.926367971     0.267090189
9.289                0.927570691     0.261913069
9.3                  0.928746517     0.256703052
9.311                0.929894994     0.251459705
9.322                0.931015654     0.246182584
9.333                0.932108015     0.240871237
9.344                0.933171579       0.2355252
9.355                 0.93420583     0.230143998
9.366                0.935210236     0.224727145
9.377                0.936184249     0.219274146
9.388                0.937127301     0.213784491
9.399                0.938038804     0.208257661
9.41                 0.938918153     0.202693124
9.421                0.939764721     0.197090335
9.432                0.940577858     0.191448738
9.443                0.941356894     0.185767762
9.454                0.942101134     0.180046825
9.465                0.942809861     0.174285331
9.476                 0.94348233     0.168482669
9.487                0.944117772     0.162638216
9.498                0.944715388     0.156751334
9.509                0.945274354      0.15082137
9.52                 0.945793814     0.144847656
9.531                0.946272879     0.138829511
9.542                0.946710633     0.132766235
9.553                 0.94710612     0.126657116
9.564                0.947458353     0.120501423
9.575                0.947766307     0.114298412
9.586                0.948028917     0.108047319
9.597                0.948245081     0.101747365
9.608                0.948413651    0.0953977557
9.619                0.948533439    0.0889976762
9.63                 0.948603208    0.0825462963
9.641                0.948621676    0.0760427675
9.652                0.948587508    0.0694862236
9.663                0.948499319      0.06287578
9.674                0.948355668    0.0562105344
9.685                0.948155056    0.0494895658
9.696                0.947895926     0.042711935
9.707                0.947576655     0.035876684
9.718                0.947195558    0.0289828367
9.729                0.946750879    0.0220293982
9.74                 0.946240789    0.0150153553
9.751                0.945663385   0.00793967658
9.762                0.945016684  0.000801312318
9.773                0.944298619   -0.0064008049
9.784                0.943507038   -0.0136677601
9.795                0.942639695   -0.0210006552
9.806                 0.94169425   -0.0284006091
9.817                0.940668263   -0.0358687563
9.828                0.939559184   -0.0434062466
9.839                0.938364358   -0.0510142443
9.85                  0.93708101   -0.0586939268
9.861                0.935706243   -0.0664464837
9.872                0.934237032   -0.0742731154
9.883                0.932670218   -0.0821750316
9.894                0.931002498   -0.0901534492
9.905                0.929230423   -0.0982095905
9.916                0.927350384    -0.106344681
9.927                 0.92535861    -0.114559946
9.938                0.923251155    -0.122856609
9.949                0.921023893    -0.131235888
9.96                 0.918672503     -0.13969899
9.971                0.916192466    -0.148247109
9.982                 0.91357905    -0.156881421
9.993                0.910827297    -0.165603077
10.004                0.90793202    -0.174413199
10.015               0.904887779    -0.183312873
10.026               0.901688878    -0.192303142
10.037               0.898329347    -0.201384996
10.048               0.894802927    -0.210559365
10.059               0.891103057    -0.219827109
10.07                0.887222857    -0.229189005
10.081               0.883155113    -0.238645736
10.092               0.878892257    -0.248197878
10.103               0.874426352    -0.257845881
10.114               0.869749071    -0.267590057
10.125               0.864851677    -0.277430559
10.136               0.859725002    -0.287367359
10.147                0.85435943    -0.297400226
10.158               0.848744866    -0.307528703
10.169               0.842870723    -0.317752073
10.18                 0.83672589    -0.328069334
10.191                0.83029871    -0.338479161
10.202               0.823576958     -0.34897987
10.213               0.816547811    -0.359569373
10.224               0.809197824    -0.370245137
10.235               0.801512902    -0.381004126
10.246               0.793478277    -0.391842751
10.257                0.78507848    -0.402756805
10.268               0.776297315    -0.413741393
10.279               0.767117835    -0.424790863
10.29                0.757522322    -0.435898715
10.301               0.747492263    -0.447057519
10.312               0.737008331    -0.458258807
10.323               0.726050375    -0.469492973
10.334               0.714597406    -0.480749145
10.345               0.702627592    -0.492015062
10.356               0.690118264    -0.503276926
10.367               0.677045925    -0.514519253
10.378               0.663386266      -0.5257247
10.389               0.649114207    -0.536873885
10.4                 0.634203939     -0.54794519
10.411                0.61862899     -0.55891455
10.422               0.602362306    -0.569755221
10.433               0.585376368    -0.580437544
10.444               0.567643318    -0.590928681
10.455               0.549135133    -0.601192343
10.466               0.529823826    -0.611188504
10.477               0.509681696    -0.620873102
10.488                0.48868162    -0.630197733
10.499               0.466797405    -0.639109334
10.51                0.444004196    -0.647549876
10.521               0.420278955     -0.65545605
10.532               0.395601018    -0.662758978
10.543               0.369952728     -0.66938394
10.554               0.343320165     -0.67525014
10.565               0.315693966    -0.680270527
10.576               0.287070249    -0.684351672
10.587               0.257451634    -0.687393751
10.598               0.226848378    -0.689290623
10.609               0.195279597    -0.689930062
10.62                0.162774592    -0.689194145
10.631               0.129374242    -0.686959853
10.642              0.0951324579    -0.683099896
10.653              0.0601176658    -0.677483813
10.664              0.0244142696    -0.669979371
10.675             -0.0118759452    -0.660454295
10.686             -0.0486325357    -0.648778353
10.697             -0.0857153256    -0.634825805
10.708              -0.122963614    -0.618478223
10.719              -0.160195765    -0.599627659
10.73               -0.197209267    -0.578180122
10.741              -0.233781385      -0.5540593
10.752              -0.269670468     -0.52721043
10.763              -0.304618032    -0.497604197
10.774              -0.338351635    -0.465240502
10.785              -0.370588612    -0.430151924
10.796              -0.401040621    -0.392406676
10.807              -0.429418961    -0.352110851
10.818              -0.455440514    -0.309409756
10.829              -0.478834162    -0.264488147
10.84               -0.499347426    -0.217569244
10.851              -0.516753059    -0.168912419
10.862              -0.530855303    -0.118809556
10.873              -0.541495478   -0.0675801474
10.884              -0.548556625   -0.0155652621
10.895              -0.551966944    0.0368793751
10.9                -0.552301786    0.0607618372
10.906              -0.551701835    0.0893909189
10.917              -0.547784423     0.141607216
10.928              -0.540284557     0.193174546
10.939              -0.529316331     0.243754943
10.95               -0.515034299     0.293032795
10.961              -0.497628593     0.340720456
10.972              -0.477319221     0.386562698
10.983              -0.454349841     0.430339881
10.994               -0.42898132     0.471869834
11.005              -0.401485344     0.511008481
11.016              -0.372138351     0.547649316
11.027              -0.341215962     0.581721904
11.038              -0.308988075     0.613189556
11.049              -0.275714708      0.64204641
11.06               -0.241642633     0.668314082
11.071              -0.207002796     0.692038084
11.082               -0.17200849     0.713284173
11.093              -0.136854219     0.732134744
11.104              -0.101715164     0.748685399
11.115             -0.0667471591     0.763041753
11.126             -0.0320871026     0.775316536
11.137             0.00214631283     0.785627019
11.148              0.0358516163     0.794092778
11.159              0.0689434032     0.800833791
11.17                0.101351072     0.805968857
11.181               0.133017506     0.809614303
11.192               0.163897747     0.811882972
11.203               0.193957691     0.812883443
11.214               0.223172834     0.812719463
11.225               0.251527084     0.811489555
11.236                0.27901166     0.809286785
11.247               0.305624067     0.806198644
11.258               0.331367171     0.802307044
11.269               0.356248358     0.797688381
11.28                0.380278785     0.792413677
11.291               0.403472711     0.786548752
11.302                0.42584691     0.780154449
11.313               0.447420151     0.773286868
11.324               0.468212757     0.765997624
11.335               0.488246207     0.758334106
11.346               0.507542811     0.750339747
11.357               0.526125421     0.742054282
11.368               0.544017189     0.733514007
11.379               0.561241366     0.724752023
11.39                0.577821132     0.715798479
11.401               0.593779456     0.706680795
11.412                0.60913898     0.697423875
11.423               0.623921929      0.68805031
11.434               0.638150035     0.678580568
11.445               0.651844482     0.669033167
11.456               0.665025862     0.659424841
11.467               0.677714142     0.649770688
11.478               0.689928645     0.640084317
11.489               0.701688035     0.630377971
11.5                 0.713010314     0.620662652
11.511               0.723912817     0.610948224
11.522               0.734412219     0.601243524
11.533               0.744524546     0.591556444
11.544               0.754265181     0.581894022
11.555                0.76364888      0.57226252
11.566               0.772689792      0.56266749
11.577                0.78140147     0.553113847
11.588               0.789796892     0.543605919
11.599               0.797888483     0.534147508
11.61                0.805688128     0.524741937
11.621               0.813207198     0.515392094
11.632               0.820456566     0.506100477
11.643               0.827446629     0.496869225
11.654               0.834187325     0.487700158
11.665               0.840688156     0.478594805
11.676               0.846958201     0.469554432
11.687                0.85300614     0.460580071
11.698               0.858840267     0.451672538
11.709                0.86446851     0.442832459
11.72                0.869898448     0.434060288
11.731               0.875137322     0.425356323
11.742               0.880192058     0.416720724
11.753               0.885069274     0.408153525
11.764                 0.8897753     0.399654652
11.775                0.89431619     0.391223929
11.786                0.89869773     0.382861093
11.797               0.902925459     0.374565803
11.808               0.907004673     0.366337649
11.819               0.910940442     0.358176158
11.83                0.914737616     0.350080805
11.841                0.91840084     0.342051017
11.852                0.92193456      0.33408618
11.863               0.925343032     0.326185646
11.874               0.928630334     0.318348734
11.885               0.931800374     0.310574739
11.896               0.934856894     0.302862934
11.907               0.937803483     0.295212571
11.918                0.94064358     0.287622891
11.929               0.943380483     0.280093121
11.94                0.946017354     0.272622479
11.951                0.94855723     0.265210177
11.962               0.951003021      0.25785542
11.973               0.953357521     0.250557413
11.984               0.955623415      0.24331536
11.995               0.957803277     0.236128465
12.006               0.959899582     0.228995933
12.017               0.961914708     0.221916975
12.028               0.963850937     0.214890805
12.039               0.965710466     0.207916641
12.05                0.967495406     0.200993711
12.061               0.969207785     0.194121248
12.072               0.970849556     0.187298492
12.083               0.972422598     0.180524693
12.094               0.973928717     0.173799109
12.105               0.975369654     0.167121009
12.116               0.976747083     0.160489671
12.127               0.978062617      0.15390438
12.138               0.979317811     0.147364437
12.149               0.980514161     0.140869149
12.16                0.981653109     0.134417837
12.171               0.982736047     0.128009829
12.182               0.983764315     0.121644468
12.193               0.984739205     0.115321107
12.204               0.985661966     0.109039107
12.215                 0.9865338     0.102797845
12.226               0.987355869    0.0965967062
12.237               0.988129292    0.0904350869
12.248               0.988855154    0.0843123953
12.259               0.989534498    0.0782280504
12.27                0.990168334    0.0721814819
12.281               0.990757638    0.0661721306
12.292               0.991303351    0.0601994478
12.303               0.991806385    0.0542628956
12.314                0.99226762    0.0483619464
12.325               0.992687908    0.0424960833
12.336               0.993068073    0.0366647992
12.347               0.993408911    0.0308675976
12.358               0.993711194    0.0251039917
12.369               0.993975667    0.0193735044
12.38                0.994203053    0.0136756686
12.391               0.994394051    0.0080100264
12.402               0.994549339   0.00237612955
12.413               0.994669572  -0.00322646117
12.424               0.994755387  -0.00879817586
12.435               0.994807399   -0.0143394357
12.446               0.994826206   -0.0198506533
12.457               0.994812385   -0.0253322324
12.468               0.994766499   -0.0307845685
12.479               0.994689091   -0.0362080488
12.49                 0.99458069   -0.0416030525
12.501               0.994441808   -0.0469699505