! TOUCHSTONE file generated by CST MICROWAVE STUDIO
! Date and time: Mon Jan 20 16:18:28 2025
! Project name: unitcell - Copy.cst
! Parameters = {A=1.40924; AB_sqInv=0.503371; B=0.025494; C0=2.097; Cj=0.183267; Cp=0.075; Ct=0.258061; ImZ=-61.6735; L=10; L1=0.3; Lp=0.35; Lpad=0.75; M=1.199; R=5.41; ReZ=2.72324; Rt=2.72324; V=19.8; Vj=2.984; W=10; W1=-0.15; W2=-0.15; Wcoop=3.29; Wgap=1; Wline=1.42; Wpad=0.475; Wpadgap=0.35; Xpad1=1.6225; Xpad2=0.7975; Xpad3=1.6225; Xpad4=0.7975; Xvar_centre=1.21; f=0.01; f0=11; fmax=11.25; fmin=10.75; h=0.8; phi=0; th=0.035; theta=0}
! Header version: 2024
! Port assignment regex: !\s*Touchstone port\s*([0-9]+)\s*=\s*(CST MWS port|CST DES external port|CST DES block port)\s*(.+)\s* \(\"(.*)\"\)(\s*mode\s*([0-9]+))?.*
! Touchstone port assignment:
! Touchstone port 1 = CST MWS port Zmax ("") mode 1
! S-Parameters are not renormalized. Unphysical impedance of 0 will be written to the file.
# GHz S RI R 0
6                   0.0699762901     0.997548655
6.011               0.0729762326      0.99733368
6.022               0.0759755391     0.997109682
6.033                0.078974182     0.996876662
6.044                0.081972134     0.996634622
6.055               0.0849693677     0.996383564
6.066               0.0879658556      0.99612349
6.077               0.0909615704     0.995854403
6.088               0.0939564846     0.995576305
6.099                0.096950571     0.995289198
6.11                0.0999438021     0.994993084
6.121                0.102936151     0.994687966
6.132                0.105927589     0.994373846
6.143                 0.10891809     0.994050728
6.154                0.111907627     0.993718614
6.165                0.114896172     0.993377506
6.176                0.117883697     0.993027408
6.187                0.120870176     0.992668324
6.198                0.123855581     0.992300255
6.209                0.126839885     0.991923205
6.22                  0.12982306     0.991537177
6.231                 0.13280508     0.991142175
6.242                0.135785917     0.990738202
6.253                0.138765544     0.990325262
6.264                0.141743933     0.989903358
6.275                0.144721058     0.989472493
6.286                0.147696891     0.989032673
6.297                0.150671406       0.9885839
6.308                0.153644574     0.988126179
6.319                0.156616369     0.987659513
6.33                 0.159586764     0.987183906
6.341                0.162555731     0.986699364
6.352                0.165523244     0.986205889
6.363                0.168489275     0.985703487
6.374                0.171453798     0.985192162
6.385                0.174416784     0.984671918
6.396                0.177378208      0.98414276
6.407                0.180338042     0.983604692
6.418                0.183296259      0.98305772
6.429                0.186252832     0.982501849
6.44                 0.189207735     0.981937082
6.451                0.192160939     0.981363426
6.462                0.195112419     0.980780885
6.473                0.198062147     0.980189464
6.484                0.201010097      0.97958917
6.495                0.203956241     0.978980006
6.506                0.206900552     0.978361979
6.517                0.209843005     0.977735094
6.528                0.212783571     0.977099356
6.539                0.215722224     0.976454772
6.55                 0.218658938     0.975801347
6.561                0.221593685     0.975139087
6.572                0.224526439     0.974467997
6.583                0.227457173     0.973788085
6.594                0.230385861     0.973099355
6.605                0.233312475     0.972401815
6.616                0.236236989     0.971695469
6.627                0.239159376     0.970980326
6.638                 0.24207961      0.97025639
6.649                0.244997663     0.969523669
6.66                  0.24791351     0.968782169
6.671                0.250827124     0.968031897
6.682                0.253738479     0.967272859
6.693                0.256647547     0.966505063
6.704                0.259554302     0.965728515
6.715                0.262458718     0.964943222
6.726                0.265360768     0.964149191
6.737                0.268260426      0.96334643
6.748                0.271157665     0.962534945
6.759                 0.27405246     0.961714744
6.77                 0.276944783     0.960885835
6.781                0.279834608     0.960048224
6.792                0.282721909     0.959201919
6.803                 0.28560666     0.958346929
6.814                0.288488835      0.95748326
6.825                0.291368406      0.95661092
6.836                0.294245349     0.955729917
6.847                0.297119636      0.95484026
6.858                0.299991242     0.953941956
6.869                 0.30286014     0.953035013
6.88                 0.305726304     0.952119439
6.891                0.308589709     0.951195244
6.902                0.311450328     0.950262434
6.913                0.314308134     0.949321019
6.924                0.317163103     0.948371006
6.935                0.320015208     0.947412406
6.946                0.322864423     0.946445225
6.957                0.325710723     0.945469473
6.968                 0.32855408     0.944485159
6.979                 0.33139447     0.943492292
6.99                 0.334231867      0.94249088
7.001                0.337066244     0.941480933
7.012                0.339897576     0.940462459
7.023                0.342725838     0.939435469
7.034                0.345551003      0.93839997
7.045                0.348373046     0.937355974
7.056                 0.35119194     0.936303488
7.067                0.354007662     0.935242522
7.078                0.356820184     0.934173087
7.089                0.359629481     0.933095191
7.1                  0.362435528     0.932008845
7.111                0.365238299     0.930914059
7.122                0.368037769     0.929810841
7.133                0.370833913     0.928699203
7.144                0.373626704     0.927579154
7.155                0.376416117     0.926450704
7.166                0.379202128     0.925313864
7.177                 0.38198471     0.924168643
7.188                0.384763839     0.923015053
7.199                0.387539488     0.921853104
7.21                 0.390311634     0.920682805
7.221                0.393080251     0.919504169
7.232                0.395845313     0.918317205
7.243                0.398606796     0.917121924
7.254                0.401364673     0.915918336
7.265                0.404118922     0.914706454
7.276                0.406869515     0.913486288
7.287                0.409616429     0.912257848
7.298                0.412359638     0.911021146
7.309                0.415099117     0.909776194
7.32                 0.417834842     0.908523002
7.331                0.420566788     0.907261581
7.342                0.423294929     0.905991944
7.353                0.426019241     0.904714102
7.364                  0.4287397     0.903428066
7.375                 0.43145628     0.902133847
7.386                0.434168957     0.900831458
7.397                0.436877707     0.899520911
7.408                0.439582504     0.898202217
7.419                0.442283324     0.896875388
7.43                 0.444980142     0.895540436
7.441                0.447672935     0.894197374
7.452                0.450361677     0.892846213
7.463                0.453046345     0.891486965
7.474                0.455726913     0.890119644
7.485                0.458403358     0.888744261
7.496                0.461075655     0.887360829
7.507                 0.46374378      0.88596936
7.518                0.466407709     0.884569867
7.529                0.469067417     0.883162363
7.54                  0.47172288      0.88174686
7.551                0.474374075     0.880323371
7.562                0.477020977     0.878891909
7.573                0.479663562     0.877452487
7.584                0.482301806     0.876005118
7.595                0.484935686     0.874549816
7.606                0.487565177     0.873086593
7.617                0.490190255     0.871615462
7.628                0.492810898     0.870136437
7.639                0.495427079     0.868649532
7.65                 0.498038778     0.867154759
7.661                0.500645968     0.865652133
7.672                0.503248627     0.864141666
7.683                0.505846732     0.862623373
7.694                0.508440258     0.861097267
7.705                0.511029182     0.859563363
7.716                0.513613481     0.858021673
7.727                0.516193131     0.856472213
7.738                0.518768108     0.854914996
7.749                0.521338391     0.853350035
7.76                 0.523903954     0.851777346
7.771                0.526464774     0.850196943
7.782                 0.52902083     0.848608839
7.793                0.531572097     0.847013049
7.804                0.534118552     0.845409589
7.815                0.536660172     0.843798471
7.826                0.539196934     0.842179711
7.837                0.541728816     0.840553324
7.848                0.544255793     0.838919324
7.859                0.546777844     0.837277725
7.87                 0.549294945     0.835628544
7.881                0.551807074     0.833971794
7.892                0.554314207     0.832307491
7.903                0.556816323      0.83063565
7.914                0.559313398     0.828956285
7.925                0.561805409     0.827269413
7.936                0.564292335     0.825575049
7.947                0.566774152     0.823873207
7.958                0.569250838     0.822163903
7.969                0.571722371     0.820447153
7.98                 0.574188728     0.818722972
7.991                0.576649887     0.816991376
8.002                0.579105825      0.81525238
8.013                0.581556521     0.813506001
8.024                0.584001951     0.811752253
8.035                0.586442095     0.809991154
8.046                 0.58887693     0.808222718
8.057                0.591306433     0.806446962
8.068                0.593730582     0.804663902
8.079                0.596149357     0.802873554
8.09                 0.598562734     0.801075935
8.101                0.600970693      0.79927106
8.112                 0.60337321     0.797458945
8.123                0.605770265     0.795639608
8.134                0.608161835     0.793813065
8.145                0.610547899     0.791979332
8.156                0.612928436     0.790138426
8.167                0.615303423     0.788290364
8.178                 0.61767284     0.786435161
8.189                0.620036664     0.784572836
8.2                  0.622394875     0.782703405
8.211                0.624747451     0.780826884
8.222                 0.62709437     0.778943291
8.233                0.629435612     0.777052644
8.244                0.631771154     0.775154958
8.255                0.634100977     0.773250251
8.266                0.636425059      0.77133854
8.277                0.638743379     0.769419844
8.288                0.641055916     0.767494178
8.299                0.643362648     0.765561561
8.31                 0.645663556     0.763622009
8.321                0.647958617     0.761675541
8.332                0.650247812     0.759722174
8.343                 0.65253112     0.757761926
8.354                 0.65480852     0.755794815
8.365                0.657079991     0.753820858
8.376                0.659345513     0.751840073
8.387                0.661605065     0.749852478
8.398                0.663858627     0.747858091
8.409                0.666106178      0.74585693
8.42                 0.668347698     0.743849013
8.431                0.670583167     0.741834359
8.442                0.672812564     0.739812986
8.453                0.675035869     0.737784911
8.464                0.677253063     0.735750154
8.475                0.679464125     0.733708732
8.486                0.681669034     0.731660664
8.497                0.683867772     0.729605969
8.508                0.686060318     0.727544665
8.519                0.688246652     0.725476771
8.53                 0.690426755     0.723402306
8.541                0.692600606     0.721321288
8.552                0.694768186     0.719233736
8.563                0.696929476      0.71713967
8.574                0.699084455     0.715039107
8.585                0.701233105     0.712932067
8.596                0.703375406     0.710818569
8.607                0.705511338     0.708698633
8.618                0.707640882     0.706572276
8.629                0.709764019      0.70443952
8.64                  0.71188073     0.702300382
8.651                0.713990995     0.700154882
8.662                0.716094795      0.69800304
8.673                0.718192112     0.695844875
8.684                0.720282926     0.693680407
8.695                0.722367218     0.691509655
8.706                0.724444969     0.689332638
8.717                0.726516162     0.687149377
8.728                0.728580776     0.684959892
8.739                0.730638793     0.682764201
8.75                 0.732690195     0.680562325
8.761                0.734734962     0.678354284
8.772                0.736773078     0.676140098
8.783                0.738804522     0.673919786
8.794                0.740829277      0.67169337
8.805                0.742847324     0.669460868
8.816                0.744858644     0.667222302
8.827                0.746863221     0.664977691
8.838                0.748861035     0.662727055
8.849                0.750852069     0.660470416
8.86                 0.752836304     0.658207793
8.871                0.754813723     0.655939207
8.882                0.756784308     0.653664678
8.893                 0.75874804     0.651384228
8.904                0.760704902     0.649097876
8.915                0.762654876     0.646805643
8.926                0.764597945     0.644507551
8.937                0.766534091     0.642203619
8.948                0.768463296     0.639893869
8.959                0.770385543     0.637578321
8.97                 0.772300815     0.635256997
8.981                0.774209094     0.632929917
8.992                0.776110362     0.630597102
9.003                0.778004604     0.628258574
9.014                0.779891801     0.625914354
9.025                0.781771937     0.623564463
9.036                0.783644993     0.621208922
9.047                0.785510955     0.618847752
9.058                0.787369804     0.616480975
9.069                0.789221523     0.614108612
9.08                 0.791066097     0.611730684
9.091                0.792903508     0.609347214
9.102                0.794733739     0.606958223
9.113                0.796556774     0.604563731
9.124                0.798372597     0.602163762
9.135                0.800181191     0.599758336
9.146                0.801982539     0.597347475
9.157                0.803776626     0.594931202
9.168                0.805563435     0.592509537
9.179                 0.80734295     0.590082504
9.19                 0.809115154     0.587650123
9.201                0.810880033     0.585212417
9.212                0.812637568     0.582769408
9.223                0.814387746     0.580321117
9.234                 0.81613055     0.577867568
9.245                0.817865963     0.575408781
9.256                0.819593972     0.572944781
9.267                0.821314558     0.570475588
9.278                0.823027709     0.568001224
9.289                0.824733406     0.565521714
9.3                  0.826431636     0.563037078
9.311                0.828122383     0.560547339
9.322                0.829805631      0.55805252
9.333                0.831481365     0.555552643
9.344                 0.83314957     0.553047732
9.355                0.834810231     0.550537807
9.366                0.836463334     0.548022893
9.377                0.838108861     0.545503012
9.388                  0.8397468     0.542978187
9.399                0.841377135      0.54044844
9.41                 0.842999851     0.537913795
9.421                0.844614934     0.535374274
9.432                0.846222369       0.5328299
9.443                0.847822141     0.530280696
9.454                0.849414236     0.527726686
9.465                 0.85099864     0.525167892
9.476                0.852575338     0.522604338
9.487                0.854144315     0.520036046
9.498                0.855705558      0.51746304
9.509                0.857259052     0.514885344
9.52                 0.858804784      0.51230298
9.531                0.860342739     0.509715971
9.542                0.861872903     0.507124342
9.553                0.863395263     0.504528115
9.564                0.864909805     0.501927315
9.575                0.866416514     0.499321964
9.586                0.867915378     0.496712086
9.597                0.869406382     0.494097705
9.608                0.870889514     0.491478844
9.619                0.872364759     0.488855528
9.63                 0.873832105     0.486227779
9.641                0.875291537     0.483595621
9.652                0.876743044     0.480959079
9.663                0.878186611     0.478318175
9.674                0.879622225     0.475672935
9.685                0.881049874     0.473023382
9.696                0.882469544     0.470369539
9.707                0.883881223     0.467711431
9.718                0.885284898     0.465049083
9.729                0.886680556     0.462382516
9.74                 0.888068184     0.459711757
9.751                0.889447771     0.457036829
9.762                0.890819302     0.454357757
9.773                0.892182766     0.451674564
9.784                0.893538151     0.448987275
9.795                0.894885444     0.446295913
9.806                0.896224633     0.443600504
9.817                0.897555705     0.440901072
9.828                 0.89887865     0.438197641
9.839                0.900193454     0.435490236
9.85                 0.901500106     0.432778881
9.861                0.902798593       0.4300636
9.872                0.904088905     0.427344419
9.883                0.905371029     0.424621361
9.894                0.906644954     0.421894451
9.905                0.907910668     0.419163715
9.916                0.909168159     0.416429176
9.927                0.910417417     0.413690859
9.938                 0.91165843      0.41094879
9.949                0.912891186     0.408202992
9.96                 0.914115674     0.405453491
9.971                0.915331884     0.402700312
9.982                0.916539805     0.399943479
9.993                0.917739424     0.397183018
10.004               0.918930732     0.394418953
10.015               0.920113717     0.391651309
10.026               0.921288369     0.388880112
10.037               0.922454677     0.386105386
10.048                0.92361263     0.383327157
10.059               0.924762219     0.380545449
10.07                0.925903432     0.377760288
10.081               0.927036259     0.374971698
10.092                0.92816069     0.372179706
10.103               0.929276714     0.369384337
10.114               0.930384322     0.366585615
10.125               0.931483504     0.363783566
10.136               0.932574248     0.360978215
10.147               0.933656546     0.358169588
10.158               0.934730388      0.35535771
10.169               0.935795764     0.352542606
10.18                0.936852663     0.349724302
10.191               0.937901077     0.346902824
10.202               0.938940996     0.344078196
10.213               0.939972411     0.341250446
10.224               0.940995312     0.338419597
10.235               0.942009689     0.335585675
10.246               0.943015534     0.332748707
10.257               0.944012838     0.329908718
10.268               0.945001591     0.327065733
10.279               0.945981784     0.324219779
10.29                0.946953408      0.32137088
10.301               0.947916455     0.318519064
10.312               0.948870916     0.315664355
10.323               0.949816782     0.312806779
10.334               0.950754044     0.309946363
10.345               0.951682694     0.307083131
10.356               0.952602724     0.304217111
10.367               0.953514125     0.301348327
10.378               0.954416888     0.298476806
10.389               0.955311006     0.295602574
10.4                  0.95619647     0.292725657
10.411               0.957073273     0.289846081
10.422               0.957941406     0.286963871
10.433               0.958800861     0.284079055
10.444               0.959651631     0.281191657
10.455               0.960493707     0.278301704
10.466               0.961327083     0.275409223
10.477                0.96215175     0.272514239
10.488               0.962967701     0.269616779
10.499               0.963774928     0.266716869
10.51                0.964573425     0.263814534
10.521               0.965363183     0.260909802
10.532               0.966144196     0.258002698
10.543               0.966916457     0.255093249
10.554               0.967679958     0.252181482
10.565               0.968434692     0.249267422
10.576               0.969180653     0.246351095
10.587               0.969917833     0.243432529
10.598               0.970646227      0.24051175
10.609               0.971365827     0.237588784
10.62                0.972076627     0.234663657
10.631                0.97277862     0.231736396
10.642               0.973471799     0.228807027
10.653                0.97415616     0.225875578
10.664               0.974831694     0.222942074
10.675               0.975498397     0.220006542
10.686               0.976156261     0.217069008
10.697               0.976805281       0.2141295
10.708               0.977445451     0.211188043
10.719               0.978076766     0.208244665
10.73                0.978699218     0.205299392
10.741               0.979312803      0.20235225
10.752               0.979917516     0.199403266
10.763               0.980513349     0.196452468
10.774               0.981100299     0.193499881
10.785               0.981678359     0.190545532
10.796               0.982247524     0.187589449
10.807               0.982807789     0.184631658
10.818                0.98335915     0.181672185
10.829                 0.9839016     0.178711057
10.84                0.984435135     0.175748302
10.851                0.98495975     0.172783946
10.862               0.985475439     0.169818015
10.873                 0.9859822     0.166850537
10.884               0.986480026     0.163881539
10.895               0.986968913     0.160911047
10.9                 0.987188178     0.159560337
10.906               0.987448857     0.157939088
10.917               0.987919852      0.15496569
10.928               0.988381896     0.151990879
10.939               0.988834984     0.149014681
10.95                 0.98927911     0.146037125
10.961               0.989714272     0.143058236
10.972               0.990140466     0.140078042
10.983               0.990557687     0.137096571
10.994               0.990965931     0.134113847
11.005               0.991365195       0.1311299
11.016               0.991755475     0.128144756
11.027               0.992136767     0.125158441
11.038               0.992509068     0.122170983
11.049               0.992872375     0.119182409
11.06                0.993226684     0.116192746
11.071               0.993571992     0.113202022
11.082               0.993908295     0.110210262
11.093                0.99423559     0.107217494
11.104               0.994553875     0.104223746
11.115               0.994863147     0.101229044
11.126               0.995163402    0.0982334154
11.137               0.995454637    0.0952368875
11.148               0.995736851    0.0922394874
11.159                0.99601004    0.0892412421
11.17                0.996274203    0.0862421789
11.181               0.996529335    0.0832423248
11.192               0.996775435    0.0802417071
11.203               0.997012501    0.0772403529
11.214               0.997240531    0.0742382893
11.225               0.997459522    0.0712355436
11.236               0.997669472     0.068232143
11.247               0.997870379    0.0652281146
11.258               0.998062241    0.0622234857
11.269               0.998245058    0.0592182834
11.28                0.998418825     0.056212535
11.291               0.998583543    0.0532062677
11.302                0.99873921    0.0501995087
11.313               0.998885823    0.0471922853
11.324               0.999023383    0.0441846246
11.335               0.999151886     0.041176554
11.346               0.999271333    0.0381681006
11.357               0.999381721    0.0351592917
11.368                0.99948305    0.0321501546
11.379               0.999575319    0.0291407165
11.39                0.999658527    0.0261310047
11.401               0.999732673    0.0231210464
11.412               0.999797756    0.0201108689
11.423               0.999853776    0.0171004995
11.434               0.999900732    0.0140899654
11.445               0.999938623    0.0110792939
11.456               0.999967449   0.00806851232
11.467                0.99998721   0.00505764785
11.478               0.999997905   0.00204672781
11.489               0.999999535 -0.000964220535
11.5                 0.999992099   -0.0039751699
11.511               0.999975597  -0.00698609302
11.522               0.999950029   -0.0099969626
11.533               0.999915396   -0.0130077514
11.544               0.999871697   -0.0160184321
11.555               0.999818933   -0.0190289774
11.566               0.999757104   -0.0220393601
11.577               0.999686211   -0.0250495528
11.588               0.999606254   -0.0280595284
11.599               0.999517234   -0.0310692595
11.61                0.999419152   -0.0340787189
11.621               0.999312008   -0.0370878793
11.632               0.999195803   -0.0400967134
11.643               0.999070539   -0.0431051939
11.654               0.998936216   -0.0461132937
11.665               0.998792836   -0.0491209854
11.676               0.998640399   -0.0521282418
11.687               0.998478907   -0.0551350356
11.698               0.998308361   -0.0581413396
11.709               0.998128764   -0.0611471265
11.72                0.997940115   -0.0641523692
11.731               0.997742418   -0.0671570403
11.742               0.997535673   -0.0701611126
11.753               0.997319882   -0.0731645589
11.764               0.997095048    -0.076167352
11.775               0.996861172   -0.0791694647
11.786               0.996618256   -0.0821708697
11.797               0.996366303   -0.0851715399
11.808               0.996105314    -0.088171448
11.819               0.995835291   -0.0911705668
11.83                0.995556239   -0.0941688693
11.841               0.995268157   -0.0971663281
11.852                0.99497105    -0.100162916
11.863               0.994664919    -0.103158606
11.874               0.994349768    -0.106153371
11.885               0.994025599    -0.109147184
11.896               0.993692415    -0.112140017
11.907               0.993350219    -0.115131844
11.918               0.992999014    -0.118122637
11.929               0.992638803    -0.121112369
11.94                 0.99226959    -0.124101014
11.951               0.991891376    -0.127088543
11.962               0.991504167    -0.130074931
11.973               0.991107964    -0.133060149
11.984               0.990702773    -0.136044171
11.995               0.990288595     -0.13902697
12.006               0.989865436    -0.142008518
12.017               0.989433298    -0.144988789
12.028               0.988992186    -0.147967756
12.039               0.988542103    -0.150945391
12.05                0.988083053    -0.153921668
12.061               0.987615041     -0.15689656
12.072               0.987138071    -0.159870039
12.083               0.986652146    -0.162842079
12.094               0.986157272    -0.165812652
12.105               0.985653452    -0.168781732
12.116               0.985140691    -0.171749293
12.127               0.984618993    -0.174715306
12.138               0.984088364    -0.177679745
12.149               0.983548808    -0.180642583
12.16                0.983000329    -0.183603793
12.171               0.982442933    -0.186563349
12.182               0.981876625    -0.189521224
12.193               0.981301409     -0.19247739
12.204                0.98071729    -0.195431821
12.215               0.980124275     -0.19838449
12.226               0.979522368    -0.201335371
12.237               0.978911574    -0.204284436
12.248               0.978291899    -0.207231658
12.259               0.977663349    -0.210177012
12.27                0.977025929    -0.213120471
12.281               0.976379644    -0.216062006
12.292               0.975724501    -0.219001593
12.303               0.975060506    -0.221939204
12.314               0.974387663    -0.224874813
12.325                0.97370598    -0.227808393
12.336               0.973015463    -0.230739917
12.347               0.972316117    -0.233669359
12.358               0.971607948    -0.236596692
12.369               0.970890964    -0.239521889
12.38                0.970165171    -0.242444925
12.391               0.969430574    -0.245365772
12.402               0.968687181    -0.248284405
12.413               0.967934998    -0.251200796
12.424               0.967174032    -0.254114919
12.435                0.96640429    -0.257026747
12.446               0.965625778    -0.259936255
12.457               0.964838504    -0.262843416
12.468               0.964042474    -0.265748203
12.479               0.963237697     -0.26865059
12.49                0.962424178    -0.271550551